 DBCSR| Multiplication driver                                               BLAS
 DBCSR| Multrec recursion limit                                              512
 DBCSR| Multiplication stack size                                           1000
 DBCSR| Maximum elements for images                                    UNLIMITED
 DBCSR| Multiplicative factor virtual images                                   1
 DBCSR| Randmat seed                                                    12341313
 DBCSR| Multiplication size stacks                                             3


  **** **** ******  **  PROGRAM STARTED AT               2017-02-27 10:46:49.921
 ***** ** ***  *** **   PROGRAM STARTED ON                                  bang
 **    ****   ******    PROGRAM STARTED BY                              oschuett
 ***** **    ** ** **   PROGRAM PROCESS ID                                  5600
  **** **  *******  **  PROGRAM STARTED IN            /data/git/PPSTM/tests/TOAT

 CP2K| version string:                                          CP2K version 4.1
 CP2K| source code revision number:                                    svn:17462
 CP2K| cp2kflags: no_ipi_driver                                                 
 CP2K| is freely available from                            https://www.cp2k.org/
 CP2K| Program compiled at                          Wed Feb 22 18:31:57 CET 2017
 CP2K| Program compiled on                                                  bang
 CP2K| Program compiled for                                          minimal_mkl
 CP2K| Data directory path           /data/anaconda2/pkgs/cp2k-4.1-0/share/cp2k/
 CP2K| Input file name                                             TOAT_cp2k.inp

 GLOBAL| Force Environment number                                              1
 GLOBAL| Basis set file name                                           BASIS_SET
 GLOBAL| Potential file name                                           POTENTIAL
 GLOBAL| MM Potential file name                                     MM_POTENTIAL
 GLOBAL| Coordinate file name                                           TOAT.xyz
 GLOBAL| Method name                                                        CP2K
 GLOBAL| Project name                                                       TOAT
 GLOBAL| Preferred FFT library                                             FFTW3
 GLOBAL| Preferred diagonalization lib.                                       SL
 GLOBAL| Run type                                                   ENERGY_FORCE
 GLOBAL| All-to-all communication in single precision                          F
 GLOBAL| FFTs using library dependent lengths                                  F
 GLOBAL| Global print level                                               MEDIUM
 GLOBAL| Total number of message passing processes                             1
 GLOBAL| Number of threads for this process                                    1
 GLOBAL| This output is from process                                           0
 GLOBAL| CPU model name :  Intel(R) Core(TM) i7-6500U CPU @ 2.50GHz

 MEMORY| system memory details [Kb]
 MEMORY|                        rank 0           min           max       average
 MEMORY| MemTotal             16310236      16310236      16310236      16310236
 MEMORY| MemFree              11015128      11015128      11015128      11015128
 MEMORY| Buffers                162760        162760        162760        162760
 MEMORY| Cached                1810896       1810896       1810896       1810896
 MEMORY| Slab                   176976        176976        176976        176976
 MEMORY| SReclaimable           118792        118792        118792        118792
 MEMORY| MemLikelyFree        13107576      13107576      13107576      13107576

 WARNING : FFT library FFTW3 is not available  Trying FFTSG as a default

 *** Fundamental physical constants (SI units) ***

 *** Literature: B. J. Mohr and B. N. Taylor,
 ***             CODATA recommended values of the fundamental physical
 ***             constants: 2006, Web Version 5.1
 ***             http://physics.nist.gov/constants

 Speed of light in vacuum [m/s]                             2.99792458000000E+08
 Magnetic constant or permeability of vacuum [N/A**2]       1.25663706143592E-06
 Electric constant or permittivity of vacuum [F/m]          8.85418781762039E-12
 Planck constant (h) [J*s]                                  6.62606896000000E-34
 Planck constant (h-bar) [J*s]                              1.05457162825177E-34
 Elementary charge [C]                                      1.60217648700000E-19
 Electron mass [kg]                                         9.10938215000000E-31
 Electron g factor [ ]                                     -2.00231930436220E+00
 Proton mass [kg]                                           1.67262163700000E-27
 Fine-structure constant                                    7.29735253760000E-03
 Rydberg constant [1/m]                                     1.09737315685270E+07
 Avogadro constant [1/mol]                                  6.02214179000000E+23
 Boltzmann constant [J/K]                                   1.38065040000000E-23
 Atomic mass unit [kg]                                      1.66053878200000E-27
 Bohr radius [m]                                            5.29177208590000E-11

 *** Conversion factors ***

 [u] -> [a.u.]                                              1.82288848426455E+03
 [Angstrom] -> [Bohr] = [a.u.]                              1.88972613288564E+00
 [a.u.] = [Bohr] -> [Angstrom]                              5.29177208590000E-01
 [a.u.] -> [s]                                              2.41888432650478E-17
 [a.u.] -> [fs]                                             2.41888432650478E-02
 [a.u.] -> [J]                                              4.35974393937059E-18
 [a.u.] -> [N]                                              8.23872205491840E-08
 [a.u.] -> [K]                                              3.15774647902944E+05
 [a.u.] -> [kJ/mol]                                         2.62549961709828E+03
 [a.u.] -> [kcal/mol]                                       6.27509468713739E+02
 [a.u.] -> [Pa]                                             2.94210107994716E+13
 [a.u.] -> [bar]                                            2.94210107994716E+08
 [a.u.] -> [atm]                                            2.90362800883016E+08
 [a.u.] -> [eV]                                             2.72113838565563E+01
 [a.u.] -> [Hz]                                             6.57968392072181E+15
 [a.u.] -> [1/cm] (wave numbers)                            2.19474631370540E+05
 [a.u./Bohr**2] -> [1/cm]                                   5.14048714338585E+03
 

 CELL_TOP| Volume [angstrom^3]:                                         2250.000
 CELL_TOP| Vector a [angstrom    15.000     0.000     0.000    |a| =      15.000
 CELL_TOP| Vector b [angstrom     0.000    15.000     0.000    |b| =      15.000
 CELL_TOP| Vector c [angstrom     0.000     0.000    10.000    |c| =      10.000
 CELL_TOP| Angle (b,c), alpha [degree]:                                   90.000
 CELL_TOP| Angle (a,c), beta  [degree]:                                   90.000
 CELL_TOP| Angle (a,b), gamma [degree]:                                   90.000
 CELL_TOP| Numerically orthorhombic:                                         YES

 GENERATE|  Preliminary Number of Bonds generated:                             0
 GENERATE|  Achieved consistency in connectivity generation.

 CELL| Volume [angstrom^3]:                                             2250.000
 CELL| Vector a [angstrom]:      15.000     0.000     0.000    |a| =      15.000
 CELL| Vector b [angstrom]:       0.000    15.000     0.000    |b| =      15.000
 CELL| Vector c [angstrom]:       0.000     0.000    10.000    |c| =      10.000
 CELL| Angle (b,c), alpha [degree]:                                       90.000
 CELL| Angle (a,c), beta  [degree]:                                       90.000
 CELL| Angle (a,b), gamma [degree]:                                       90.000
 CELL| Numerically orthorhombic:                                             YES

 CELL_REF| Volume [angstrom^3]:                                         2250.000
 CELL_REF| Vector a [angstrom    15.000     0.000     0.000    |a| =      15.000
 CELL_REF| Vector b [angstrom     0.000    15.000     0.000    |b| =      15.000
 CELL_REF| Vector c [angstrom     0.000     0.000    10.000    |c| =      10.000
 CELL_REF| Angle (b,c), alpha [degree]:                                   90.000
 CELL_REF| Angle (a,c), beta  [degree]:                                   90.000
 CELL_REF| Angle (a,b), gamma [degree]:                                   90.000
 CELL_REF| Numerically orthorhombic:                                         YES

 *******************************************************************************
 *******************************************************************************
 **                                                                           **
 **     #####                         ##              ##                      **
 **    ##   ##            ##          ##              ##                      **
 **   ##     ##                       ##            ######                    **
 **   ##     ##  ##   ##  ##   #####  ##  ##   ####   ##    #####    #####    **
 **   ##     ##  ##   ##  ##  ##      ## ##   ##      ##   ##   ##  ##   ##   **
 **   ##  ## ##  ##   ##  ##  ##      ####     ###    ##   ######   ######    **
 **    ##  ###   ##   ##  ##  ##      ## ##      ##   ##   ##       ##        **
 **     #######   #####   ##   #####  ##  ##  ####    ##    #####   ##        **
 **           ##                                                    ##        **
 **                                                                           **
 **                                                ... make the atoms dance   **
 **                                                                           **
 **            Copyright (C) by CP2K developers group (2000 - 2016)           **
 **                                                                           **
 *******************************************************************************

 DFT| Spin restricted Kohn-Sham (RKS) calculation                            RKS
 DFT| Multiplicity                                                             1
 DFT| Number of spin states                                                    1
 DFT| Charge                                                                   0
 DFT| Self-interaction correction (SIC)                                       NO
 DFT| Cutoffs: density                                              1.000000E-10
 DFT|          gradient                                             1.000000E-10
 DFT|          tau                                                  1.000000E-10
 DFT|          cutoff_smoothing_range                               0.000000E+00
 DFT| XC density smoothing                                                  NONE
 DFT| XC derivatives                                                          PW
 FUNCTIONAL| ROUTINE=NEW
 FUNCTIONAL| PADE:
 FUNCTIONAL| S. Goedecker, M. Teter and J. Hutter, Phys. Rev. B 54, 1703 (1996) 

 QS| Method:                                                                 GPW
 QS| Density plane wave grid type                        NON-SPHERICAL FULLSPACE
 QS| Number of grid levels:                                                    4
 QS| Density cutoff [a.u.]:                                                140.0
 QS| Multi grid cutoff [a.u.]: 1) grid level                               140.0
 QS|                           2) grid level                                46.7
 QS|                           3) grid level                                15.6
 QS|                           4) grid level                                 5.2
 QS| Grid level progression factor:                                          3.0
 QS| Relative density cutoff [a.u.]:                                        20.0
 QS| Consistent realspace mapping and integration 
 QS| Interaction thresholds: eps_pgf_orb:                                1.0E-05
 QS|                         eps_filter_matrix:                          0.0E+00
 QS|                         eps_core_charge:                            1.0E-12
 QS|                         eps_rho_gspace:                             1.0E-10
 QS|                         eps_rho_rspace:                             1.0E-10
 QS|                         eps_gvg_rspace:                             1.0E-05
 QS|                         eps_ppl:                                    1.0E-02
 QS|                         eps_ppnl:                                   1.0E-07


 ATOMIC KIND INFORMATION

  1. Atomic kind: N                                     Number of atoms:       1

     Orbital Basis Set                                             DZVP-GTH-PADE

       Number of orbital shell sets:                                           2
       Number of orbital shells:                                               5
       Number of primitive Cartesian functions:                                5
       Number of Cartesian basis functions:                                   14
       Number of spherical basis functions:                                   13
       Norm type:                                                              2

       Normalised Cartesian orbitals:

                        Set   Shell   Orbital            Exponent    Coefficient

                          1       1    2s                6.152708       0.419391
                                                         1.823645      -0.040272
                                                         0.567667      -0.323568
                                                         0.162823      -0.070862

                          1       2    3s                6.152708       0.000000
                                                         1.823645       0.000000
                                                         0.567667       0.000000
                                                         0.162823       0.182683

                          1       3    3px               6.152708      -1.313014
                                                         1.823645      -0.881712
                                                         0.567667      -0.332850
                                                         0.162823      -0.057401
                          1       3    3py               6.152708      -1.313014
                                                         1.823645      -0.881712
                                                         0.567667      -0.332850
                                                         0.162823      -0.057401
                          1       3    3pz               6.152708      -1.313014
                                                         1.823645      -0.881712
                                                         0.567667      -0.332850
                                                         0.162823      -0.057401

                          1       4    4px               6.152708       0.000000
                                                         1.823645       0.000000
                                                         0.567667       0.000000
                                                         0.162823       0.147430
                          1       4    4py               6.152708       0.000000
                                                         1.823645       0.000000
                                                         0.567667       0.000000
                                                         0.162823       0.147430
                          1       4    4pz               6.152708       0.000000
                                                         1.823645       0.000000
                                                         0.567667       0.000000
                                                         0.162823       0.147430

                          2       1    3dx2              0.700000       0.881721
                          2       1    3dxy              0.700000       1.527185
                          2       1    3dxz              0.700000       1.527185
                          2       1    3dy2              0.700000       0.881721
                          2       1    3dyz              0.700000       1.527185
                          2       1    3dz2              0.700000       0.881721

     Potential information for                                          GTH-PADE

       Description:                       Goedecker-Teter-Hutter pseudopotential
                                           Goedecker et al., PRB 54, 1703 (1996)
                                          Hartwigsen et al., PRB 58, 3641 (1998)
                                                      Krack, TCA 114, 145 (2005)

       Gaussian exponent of the core charge distribution:               5.979100
       Electronic configuration (s p d ...):                               2   3

       Parameters of the local part of the GTH pseudopotential:

                          rloc        C1          C2          C3          C4
                        0.289179  -12.234820    1.766407

       Parameters of the non-local part of the GTH pseudopotential:

                   l      r(l)      h(i,j,l)

                   0    0.256605   13.552243
                   1    0.270134

  2. Atomic kind: C                                     Number of atoms:      21

     Orbital Basis Set                                             DZVP-GTH-PADE

       Number of orbital shell sets:                                           2
       Number of orbital shells:                                               5
       Number of primitive Cartesian functions:                                5
       Number of Cartesian basis functions:                                   14
       Number of spherical basis functions:                                   13
       Norm type:                                                              2

       Normalised Cartesian orbitals:

                        Set   Shell   Orbital            Exponent    Coefficient

                          1       1    2s                4.336251       0.319274
                                                         1.288182      -0.025218
                                                         0.403776      -0.248447
                                                         0.118788      -0.057170

                          1       2    3s                4.336251       0.000000
                                                         1.288182       0.000000
                                                         0.403776       0.000000
                                                         0.118788       0.144208

                          1       3    3px               4.336251      -0.783228
                                                         1.288182      -0.542955
                                                         0.403776      -0.216196
                                                         0.118788      -0.040339
                          1       3    3py               4.336251      -0.783228
                                                         1.288182      -0.542955
                                                         0.403776      -0.216196
                                                         0.118788      -0.040339
                          1       3    3pz               4.336251      -0.783228
                                                         1.288182      -0.542955
                                                         0.403776      -0.216196
                                                         0.118788      -0.040339

                          1       4    4px               4.336251       0.000000
                                                         1.288182       0.000000
                                                         0.403776       0.000000
                                                         0.118788       0.099404
                          1       4    4py               4.336251       0.000000
                                                         1.288182       0.000000
                                                         0.403776       0.000000
                                                         0.118788       0.099404
                          1       4    4pz               4.336251       0.000000
                                                         1.288182       0.000000
                                                         0.403776       0.000000
                                                         0.118788       0.099404

                          2       1    3dx2              0.600000       0.673247
                          2       1    3dxy              0.600000       1.166097
                          2       1    3dxz              0.600000       1.166097
                          2       1    3dy2              0.600000       0.673247
                          2       1    3dyz              0.600000       1.166097
                          2       1    3dz2              0.600000       0.673247

     Potential information for                                          GTH-PADE

       Description:                       Goedecker-Teter-Hutter pseudopotential
                                           Goedecker et al., PRB 54, 1703 (1996)
                                          Hartwigsen et al., PRB 58, 3641 (1998)
                                                      Krack, TCA 114, 145 (2005)

       Gaussian exponent of the core charge distribution:               4.109048
       Electronic configuration (s p d ...):                               2   2

       Parameters of the local part of the GTH pseudopotential:

                          rloc        C1          C2          C3          C4
                        0.348830   -8.513771    1.228432

       Parameters of the non-local part of the GTH pseudopotential:

                   l      r(l)      h(i,j,l)

                   0    0.304553    9.522842
                   1    0.232677

  3. Atomic kind: O                                     Number of atoms:       3

     Orbital Basis Set                                             DZVP-GTH-PADE

       Number of orbital shell sets:                                           2
       Number of orbital shells:                                               5
       Number of primitive Cartesian functions:                                5
       Number of Cartesian basis functions:                                   14
       Number of spherical basis functions:                                   13
       Norm type:                                                              2

       Normalised Cartesian orbitals:

                        Set   Shell   Orbital            Exponent    Coefficient

                          1       1    2s                8.304404       0.526521
                                                         2.457945      -0.055011
                                                         0.759736      -0.404341
                                                         0.213639      -0.086026

                          1       2    3s                8.304404       0.000000
                                                         2.457945       0.000000
                                                         0.759736       0.000000
                                                         0.213639       0.223960

                          1       3    3px               8.304404      -2.000758
                                                         2.457945      -1.321077
                                                         0.759736      -0.480331
                                                         0.213639      -0.078647
                          1       3    3py               8.304404      -2.000758
                                                         2.457945      -1.321077
                                                         0.759736      -0.480331
                                                         0.213639      -0.078647
                          1       3    3pz               8.304404      -2.000758
                                                         2.457945      -1.321077
                                                         0.759736      -0.480331
                                                         0.213639      -0.078647

                          1       4    4px               8.304404       0.000000
                                                         2.457945       0.000000
                                                         0.759736       0.000000
                                                         0.213639       0.207033
                          1       4    4py               8.304404       0.000000
                                                         2.457945       0.000000
                                                         0.759736       0.000000
                                                         0.213639       0.207033
                          1       4    4pz               8.304404       0.000000
                                                         2.457945       0.000000
                                                         0.759736       0.000000
                                                         0.213639       0.207033

                          2       1    3dx2              0.800000       1.113825
                          2       1    3dxy              0.800000       1.929201
                          2       1    3dxz              0.800000       1.929201
                          2       1    3dy2              0.800000       1.113825
                          2       1    3dyz              0.800000       1.929201
                          2       1    3dz2              0.800000       1.113825

     Potential information for                                          GTH-PADE

       Description:                       Goedecker-Teter-Hutter pseudopotential
                                           Goedecker et al., PRB 54, 1703 (1996)
                                          Hartwigsen et al., PRB 58, 3641 (1998)
                                                      Krack, TCA 114, 145 (2005)

       Gaussian exponent of the core charge distribution:               8.154466
       Electronic configuration (s p d ...):                               2   4

       Parameters of the local part of the GTH pseudopotential:

                          rloc        C1          C2          C3          C4
                        0.247621  -16.580318    2.395701

       Parameters of the non-local part of the GTH pseudopotential:

                   l      r(l)      h(i,j,l)

                   0    0.221786   18.266917
                   1    0.256829

  4. Atomic kind: H                                     Number of atoms:       9

     Orbital Basis Set                                             DZVP-GTH-PADE

       Number of orbital shell sets:                                           2
       Number of orbital shells:                                               3
       Number of primitive Cartesian functions:                                5
       Number of Cartesian basis functions:                                    5
       Number of spherical basis functions:                                    5
       Norm type:                                                              2

       Normalised Cartesian orbitals:

                        Set   Shell   Orbital            Exponent    Coefficient

                          1       1    1s                8.374435      -0.083834
                                                         1.805868      -0.155208
                                                         0.485253      -0.104875
                                                         0.165824      -0.128813

                          1       2    2s                8.374435       0.000000
                                                         1.805868       0.000000
                                                         0.485253       0.000000
                                                         0.165824       0.185202

                          2       1    2px               0.700000       0.912668
                          2       1    2py               0.700000       0.912668
                          2       1    2pz               0.700000       0.912668

     Potential information for                                          GTH-PADE

       Description:                       Goedecker-Teter-Hutter pseudopotential
                                           Goedecker et al., PRB 54, 1703 (1996)
                                          Hartwigsen et al., PRB 58, 3641 (1998)
                                                      Krack, TCA 114, 145 (2005)

       Gaussian exponent of the core charge distribution:              12.500000
       Electronic configuration (s p d ...):                                   1

       Parameters of the local part of the GTH pseudopotential:

                          rloc        C1          C2          C3          C4
                        0.200000   -4.180237    0.725075


 MOLECULE KIND INFORMATION


 All atoms are their own molecule, skipping detailed information


 TOTAL NUMBERS AND MAXIMUM NUMBERS

  Total number of            - Atomic kinds:                                   4
                             - Atoms:                                         34
                             - Shell sets:                                    68
                             - Shells:                                       152
                             - Primitive Cartesian functions:                170
                             - Cartesian basis functions:                    395
                             - Spherical basis functions:                    370

  Maximum angular momentum of- Orbital basis functions:                        2
                             - Local part of the GTH pseudopotential:          2
                             - Non-local part of the GTH pseudopotential:      0


 MODULE QUICKSTEP:  ATOMIC COORDINATES IN angstrom

  Atom  Kind  Element       X           Y           Z          Z(eff)       Mass

       1     1 N    7    6.439551    6.684124    8.755144      5.00      14.0067
       2     2 C    6    6.433857    8.117678    8.757630      4.00      12.0107
       3     2 C    6    5.225425    8.832513    8.748769      4.00      12.0107
       4     2 C    6    3.924497    8.123027    8.701505      4.00      12.0107
       5     2 C    6    3.972213    6.641878    8.746778      4.00      12.0107
       6     2 C    6    5.200924    5.962464    8.756861      4.00      12.0107
       7     2 C    6    7.636553    8.842137    8.748664      4.00      12.0107
       8     2 C    6    8.943013    8.142934    8.701161      4.00      12.0107
       9     2 C    6    7.615808   10.235759    8.761322      4.00      12.0107
      10     2 C    6    5.235118   10.226260    8.761335      4.00      12.0107
      11     2 C    6    6.422656   10.934059    8.778573      4.00      12.0107
      12     2 C    6    2.775638    5.927137    8.756910      4.00      12.0107
      13     2 C    6    2.767373    4.544664    8.773145      4.00      12.0107
      14     2 C    6    5.186045    4.558540    8.748468      4.00      12.0107
      15     2 C    6    6.451034    3.786580    8.704906      4.00      12.0107
      16     2 C    6    3.974128    3.870089    8.758529      4.00      12.0107
      17     2 C    6    8.907072    6.661481    8.747379      4.00      12.0107
      18     2 C    6   10.109300    5.956289    8.758456      4.00      12.0107
      19     2 C    6   10.128571    4.573950    8.775740      4.00      12.0107
      20     2 C    6    8.927198    3.889812    8.760789      4.00      12.0107
      21     2 C    6    7.709844    4.568563    8.749551      4.00      12.0107
      22     2 C    6    7.683828    5.972327    8.757430      4.00      12.0107
      23     3 O    8    9.982315    8.748535    8.627288      6.00      15.9994
      24     3 O    8    6.455875    2.583493    8.634704      6.00      15.9994
      25     3 O    8    2.880405    8.720419    8.628386      6.00      15.9994
      26     4 H    1    8.561579   10.746691    8.748657      1.00       1.0079
      27     4 H    1    4.285306   10.729650    8.748621      1.00       1.0079
      28     4 H    1    6.418380   12.007236    8.794603      1.00       1.0079
      29     4 H    1    1.860315    6.490801    8.743269      1.00       1.0079
      30     4 H    1    1.840056    4.004378    8.786732      1.00       1.0079
      31     4 H    1    4.013125    2.795834    8.746089      1.00       1.0079
      32     4 H    1   11.020147    6.527169    8.744716      1.00       1.0079
      33     4 H    1   11.060136    4.041053    8.790286      1.00       1.0079
      34     4 H    1    8.896779    2.815273    8.748909      1.00       1.0079




 SCF PARAMETERS         Density guess:                                    ATOMIC
                        --------------------------------------------------------
                        max_scf:                                              50
                        max_scf_history:                                       0
                        max_diis:                                              4
                        --------------------------------------------------------
                        eps_scf:                                        1.00E-05
                        eps_scf_history:                                0.00E+00
                        eps_diis:                                       1.00E-01
                        eps_eigval:                                     1.00E-05
                        --------------------------------------------------------
                        level_shift [a.u.]:                                 0.00
                        --------------------------------------------------------
                        Mixing method:                           DIRECT_P_MIXING
                        --------------------------------------------------------
                        No outer SCF

 PW_GRID| Information for grid number                                          1
 PW_GRID| Cutoff [a.u.]                                                    140.0
 PW_GRID| spherical cutoff:                                                   NO
 PW_GRID|   Bounds   1            -80      79                Points:         160
 PW_GRID|   Bounds   2            -80      79                Points:         160
 PW_GRID|   Bounds   3            -54      53                Points:         108
 PW_GRID| Volume element (a.u.^3)  0.5492E-02     Volume (a.u.^3)     15183.7528
 PW_GRID| Grid span                                                    FULLSPACE

 PW_GRID| Information for grid number                                          2
 PW_GRID| Cutoff [a.u.]                                                     46.7
 PW_GRID| spherical cutoff:                                                   NO
 PW_GRID|   Bounds   1            -45      44                Points:          90
 PW_GRID|   Bounds   2            -45      44                Points:          90
 PW_GRID|   Bounds   3            -30      29                Points:          60
 PW_GRID| Volume element (a.u.^3)  0.3124E-01     Volume (a.u.^3)     15183.7528
 PW_GRID| Grid span                                                    FULLSPACE

 PW_GRID| Information for grid number                                          3
 PW_GRID| Cutoff [a.u.]                                                     15.6
 PW_GRID| spherical cutoff:                                                   NO
 PW_GRID|   Bounds   1            -27      26                Points:          54
 PW_GRID|   Bounds   2            -27      26                Points:          54
 PW_GRID|   Bounds   3            -18      17                Points:          36
 PW_GRID| Volume element (a.u.^3)  0.1446         Volume (a.u.^3)     15183.7528
 PW_GRID| Grid span                                                    FULLSPACE

 PW_GRID| Information for grid number                                          4
 PW_GRID| Cutoff [a.u.]                                                      5.2
 PW_GRID| spherical cutoff:                                                   NO
 PW_GRID|   Bounds   1            -15      14                Points:          30
 PW_GRID|   Bounds   2            -15      14                Points:          30
 PW_GRID|   Bounds   3            -10       9                Points:          20
 PW_GRID| Volume element (a.u.^3)  0.8435         Volume (a.u.^3)     15183.7528
 PW_GRID| Grid span                                                    FULLSPACE

 POISSON| Solver                                                        PERIODIC
 POISSON| Periodicity                                                        XYZ

 RS_GRID| Information for grid number                                          1
 RS_GRID|   Bounds   1            -80      79                Points:         160
 RS_GRID|   Bounds   2            -80      79                Points:         160
 RS_GRID|   Bounds   3            -54      53                Points:         108

 RS_GRID| Information for grid number                                          2
 RS_GRID|   Bounds   1            -45      44                Points:          90
 RS_GRID|   Bounds   2            -45      44                Points:          90
 RS_GRID|   Bounds   3            -30      29                Points:          60

 RS_GRID| Information for grid number                                          3
 RS_GRID|   Bounds   1            -27      26                Points:          54
 RS_GRID|   Bounds   2            -27      26                Points:          54
 RS_GRID|   Bounds   3            -18      17                Points:          36

 RS_GRID| Information for grid number                                          4
 RS_GRID|   Bounds   1            -15      14                Points:          30
 RS_GRID|   Bounds   2            -15      14                Points:          30
 RS_GRID|   Bounds   3            -10       9                Points:          20

 DISTRIBUTION OF THE PARTICLES (ROWS)
              Process row      Number of particles         Number of matrix rows
                        0                       34                            -1
                      Sum                       34                            -1

 DISTRIBUTION OF THE PARTICLES (COLUMNS)
              Process col      Number of particles      Number of matrix columns
                        0                       34                            -1
                      Sum                       34                            -1

 DISTRIBUTION OF THE NEIGHBOR LISTS
              Total number of particle pairs:                                891
              Total number of matrix elements:                            116099
              Average number of particle pairs:                              891
              Maximum number of particle pairs:                              891
              Average number of matrix element:                           116099
              Maximum number of matrix elements:                          116099


 DISTRIBUTION OF THE OVERLAP MATRIX
              Number  of non-zero blocks:                                    585
              Percentage non-zero blocks:                                  98.32
              Average number of blocks per CPU:                              585
              Maximum number of blocks per CPU:                              585
              Average number of matrix elements per CPU:                   70275
              Maximum number of matrix elements per CPU:                   70275

 Number of electrons:                                                        116
 Number of occupied orbitals:                                                 58
 Number of molecular orbitals:                                               370

 Number of orbital functions:                                                370
 Number of independent orbital functions:                                    370

 Extrapolation method: initial_guess

 Atomic guess: The first density matrix is obtained in terms of atomic orbitals
               and electronic configurations assigned to each atomic kind

 Guess for atomic kind: N

 Electronic structure
    Total number of core electrons                                          2.00
    Total number of valence electrons                                       5.00
    Total number of electrons                                               7.00
    Multiplicity                                                   not specified
    S   [  2.00] 2.00
    P      3.00


 *******************************************************************************
                  Iteration          Convergence                     Energy [au]
 *******************************************************************************
                          1        0.859970                      -9.200162697035
                          2        0.890927                      -9.327001448383
                          3        0.156424E-01                  -9.578732562547
                          4        0.320242E-03                  -9.578809657072
                          5        0.147958E-03                  -9.578809682124
                          6        0.956438E-04                  -9.578809686081
                          7        0.781392E-06                  -9.578809688920

 Energy components [Hartree]           Total Energy ::           -9.578809688920
                                        Band Energy ::           -2.051194361658
                                     Kinetic Energy ::            6.861459082242
                                   Potential Energy ::          -16.440268771162
                                      Virial (-V/T) ::            2.396031015285
                                        Core Energy ::          -15.605133154344
                                          XC Energy ::           -2.172800520067
                                     Coulomb Energy ::            8.199123985491
                       Total Pseudopotential Energy ::          -22.503294958772
                       Local Pseudopotential Energy ::          -23.456111224224
                    Nonlocal Pseudopotential Energy ::            0.952816265452
                                        Confinement ::            0.367027221857

 Orbital energies  State     L     Occupation   Energy[a.u.]          Energy[eV]

                       1     0          2.000      -0.657469          -17.890641

                       1     1          3.000      -0.245419           -6.678185


 Total Electron Density at R=0:                                         0.000414

 Guess for atomic kind: C

 Electronic structure
    Total number of core electrons                                          2.00
    Total number of valence electrons                                       4.00
    Total number of electrons                                               6.00
    Multiplicity                                                   not specified
    S   [  2.00] 2.00
    P      2.00


 *******************************************************************************
                  Iteration          Convergence                     Energy [au]
 *******************************************************************************
                          1        0.325568                      -5.192312084300
                          2        0.241131                      -5.258857133041
                          3        0.860160E-03                  -5.304302492762
                          4        0.109531E-04                  -5.304303162566
                          5        0.544321E-05                  -5.304303162637
                          6        0.362231E-05                  -5.304303162650
                          7        0.405949E-07                  -5.304303162660

 Energy components [Hartree]           Total Energy ::           -5.304303162660
                                        Band Energy ::           -1.320195984533
                                     Kinetic Energy ::            3.454844058671
                                   Potential Energy ::           -8.759147221331
                                      Virial (-V/T) ::            2.535323468319
                                        Core Energy ::           -8.329528315955
                                          XC Energy ::           -1.382804935521
                                     Coulomb Energy ::            4.408030088816
                       Total Pseudopotential Energy ::          -11.818294000945
                       Local Pseudopotential Energy ::          -12.470239865108
                    Nonlocal Pseudopotential Energy ::            0.651945864164
                                        Confinement ::            0.339216263177

 Orbital energies  State     L     Occupation   Energy[a.u.]          Energy[eV]

                       1     0          2.000      -0.481984          -13.115447

                       1     1          2.000      -0.178114           -4.846732


 Total Electron Density at R=0:                                         0.000209

 Guess for atomic kind: O

 Electronic structure
    Total number of core electrons                                          2.00
    Total number of valence electrons                                       6.00
    Total number of electrons                                               8.00
    Multiplicity                                                   not specified
    S   [  2.00] 2.00
    P      4.00


 *******************************************************************************
                  Iteration          Convergence                     Energy [au]
 *******************************************************************************
                          1         1.68085                     -14.857481728656
                          2         2.15642                     -14.936142370053
                          3        0.890654E-01                 -15.701381433081
                          4        0.300038E-02                 -15.702655347039
                          5        0.124050E-02                 -15.702656532555
                          6        0.771851E-03                 -15.702656682204
                          7        0.254544E-04                 -15.702656776553
                          8        0.154783E-06                 -15.702656776662

 Energy components [Hartree]           Total Energy ::          -15.702656776662
                                        Band Energy ::           -2.982159100247
                                     Kinetic Energy ::           11.942300538966
                                   Potential Energy ::          -27.644957315628
                                      Virial (-V/T) ::            2.314877039430
                                        Core Energy ::          -26.240316547129
                                          XC Energy ::           -3.168822356033
                                     Coulomb Energy ::           13.706482126500
                       Total Pseudopotential Energy ::          -38.217120617695
                       Local Pseudopotential Energy ::          -39.522374145046
                    Nonlocal Pseudopotential Energy ::            1.305253527351
                                        Confinement ::            0.345035316001

 Orbital energies  State     L     Occupation   Energy[a.u.]          Energy[eV]

                       1     0          2.000      -0.854038          -23.239548

                       1     1          4.000      -0.318521           -8.667395


 Total Electron Density at R=0:                                         0.000667

 Guess for atomic kind: H

 Electronic structure
    Total number of core electrons                                          0.00
    Total number of valence electrons                                       1.00
    Total number of electrons                                               1.00
    Multiplicity                                                   not specified
    S      1.00


 *******************************************************************************
                  Iteration          Convergence                     Energy [au]
 *******************************************************************************
                          1        0.316011E-02                  -0.422390558413
                          2        0.333152E-03                  -0.422399635530
                          3        0.114302E-06                  -0.422399737491

 Energy components [Hartree]           Total Energy ::           -0.422399737491
                                        Band Energy ::           -0.193019372217
                                     Kinetic Energy ::            0.475009752129
                                   Potential Energy ::           -0.897409489620
                                      Virial (-V/T) ::            1.889244348347
                                        Core Energy ::           -0.478923189740
                                          XC Energy ::           -0.248206713182
                                     Coulomb Energy ::            0.304730165431
                       Total Pseudopotential Energy ::           -0.971460622099
                       Local Pseudopotential Energy ::           -0.971460622099
                    Nonlocal Pseudopotential Energy ::            0.000000000000
                                        Confinement ::            0.175276802303

 Orbital energies  State     L     Occupation   Energy[a.u.]          Energy[eV]

                       1     0          1.000      -0.193019           -5.252324


 Total Electron Density at R=0:                                         0.237353
 Re-scaling the density matrix to get the right number of electrons
                  # Electrons              Trace(P)               Scaling factor
                          116               116.000                        1.000


 SCF WAVEFUNCTION OPTIMIZATION

  Step     Update method      Time    Convergence         Total energy    Change
  ------------------------------------------------------------------------------

  Trace(PS):                                  116.0000000000
  Electronic density on regular grids:       -115.9999999998        0.0000000002
  Core density on regular grids:              115.9999999914       -0.0000000086
  Total charge density on r-space grids:       -0.0000000085
  Total charge density g-space grids:          -0.0000000085

     1 P_Mix/Diag. 0.40E+00    1.9     1.63082623      -182.4387148261 -1.82E+02

  Trace(PS):                                  116.0000000000
  Electronic density on regular grids:       -115.9999999994        0.0000000006
  Core density on regular grids:              115.9999999914       -0.0000000086
  Total charge density on r-space grids:       -0.0000000081
  Total charge density g-space grids:          -0.0000000081

     2 P_Mix/Diag. 0.40E+00    3.6     0.87668194      -182.6447937227 -2.06E-01

  Trace(PS):                                  116.0000000000
  Electronic density on regular grids:       -115.9999999994        0.0000000006
  Core density on regular grids:              115.9999999914       -0.0000000086
  Total charge density on r-space grids:       -0.0000000081
  Total charge density g-space grids:          -0.0000000081

     3 P_Mix/Diag. 0.40E+00    3.5     0.68128706      -182.7029701406 -5.82E-02

  Trace(PS):                                  116.0000000000
  Electronic density on regular grids:       -115.9999999993        0.0000000007
  Core density on regular grids:              115.9999999914       -0.0000000086
  Total charge density on r-space grids:       -0.0000000080
  Total charge density g-space grids:          -0.0000000080

     4 P_Mix/Diag. 0.40E+00    3.8     0.38161162      -182.7288224784 -2.59E-02

  Trace(PS):                                  116.0000000000
  Electronic density on regular grids:       -115.9999999994        0.0000000006
  Core density on regular grids:              115.9999999914       -0.0000000086
  Total charge density on r-space grids:       -0.0000000080
  Total charge density g-space grids:          -0.0000000080

     5 P_Mix/Diag. 0.40E+00    4.0     0.30451491      -182.7431616030 -1.43E-02

  Trace(PS):                                  116.0000000000
  Electronic density on regular grids:       -115.9999999993        0.0000000007
  Core density on regular grids:              115.9999999914       -0.0000000086
  Total charge density on r-space grids:       -0.0000000079
  Total charge density g-space grids:          -0.0000000079

     6 P_Mix/Diag. 0.40E+00    4.4     0.13746418      -182.7524752393 -9.31E-03

  Trace(PS):                                  116.0000000000
  Electronic density on regular grids:       -115.9999999994        0.0000000006
  Core density on regular grids:              115.9999999914       -0.0000000086
  Total charge density on r-space grids:       -0.0000000080
  Total charge density g-space grids:          -0.0000000080

     7 P_Mix/Diag. 0.40E+00    4.3     0.12798857      -182.7586917381 -6.22E-03

  Trace(PS):                                  116.0000000000
  Electronic density on regular grids:       -115.9999999993        0.0000000007
  Core density on regular grids:              115.9999999914       -0.0000000086
  Total charge density on r-space grids:       -0.0000000080
  Total charge density g-space grids:          -0.0000000080

     8 P_Mix/Diag. 0.40E+00    3.8     0.09243118      -182.7631004492 -4.41E-03

  Trace(PS):                                  116.0000000000
  Electronic density on regular grids:       -115.9999999994        0.0000000006
  Core density on regular grids:              115.9999999914       -0.0000000086
  Total charge density on r-space grids:       -0.0000000080
  Total charge density g-space grids:          -0.0000000080

     9 DIIS/Diag.  0.36E-01    3.8     0.03893034      -182.7661872194 -3.09E-03

  Trace(PS):                                  116.0000000000
  Electronic density on regular grids:       -115.9999999993        0.0000000007
  Core density on regular grids:              115.9999999914       -0.0000000086
  Total charge density on r-space grids:       -0.0000000080
  Total charge density g-space grids:          -0.0000000080

    10 DIIS/Diag.  0.11E-02    4.1     0.00166010      -182.7745838836 -8.40E-03

  Trace(PS):                                  116.0000000000
  Electronic density on regular grids:       -115.9999999994        0.0000000006
  Core density on regular grids:              115.9999999914       -0.0000000086
  Total charge density on r-space grids:       -0.0000000080
  Total charge density g-space grids:          -0.0000000080

    11 DIIS/Diag.  0.87E-03    4.0     0.00079843      -182.7745840779 -1.94E-07

  Trace(PS):                                  116.0000000000
  Electronic density on regular grids:       -115.9999999994        0.0000000006
  Core density on regular grids:              115.9999999914       -0.0000000086
  Total charge density on r-space grids:       -0.0000000080
  Total charge density g-space grids:          -0.0000000080

    12 DIIS/Diag.  0.13E-03    4.2     0.00028242      -182.7745855050 -1.43E-06

  Trace(PS):                                  116.0000000000
  Electronic density on regular grids:       -115.9999999994        0.0000000006
  Core density on regular grids:              115.9999999914       -0.0000000086
  Total charge density on r-space grids:       -0.0000000080
  Total charge density g-space grids:          -0.0000000080

    13 DIIS/Diag.  0.65E-04    4.3     0.00008935      -182.7745855635 -5.85E-08

  Trace(PS):                                  116.0000000000
  Electronic density on regular grids:       -115.9999999994        0.0000000006
  Core density on regular grids:              115.9999999914       -0.0000000086
  Total charge density on r-space grids:       -0.0000000080
  Total charge density g-space grids:          -0.0000000080

    14 DIIS/Diag.  0.61E-04    4.0     0.00008417      -182.7745855675 -4.01E-09

  Trace(PS):                                  116.0000000000
  Electronic density on regular grids:       -115.9999999994        0.0000000006
  Core density on regular grids:              115.9999999914       -0.0000000086
  Total charge density on r-space grids:       -0.0000000080
  Total charge density g-space grids:          -0.0000000080

    15 DIIS/Diag.  0.35E-04    4.2     0.00002999      -182.7745855684 -9.06E-10

  Trace(PS):                                  116.0000000000
  Electronic density on regular grids:       -115.9999999994        0.0000000006
  Core density on regular grids:              115.9999999914       -0.0000000086
  Total charge density on r-space grids:       -0.0000000080
  Total charge density g-space grids:          -0.0000000080

    16 DIIS/Diag.  0.18E-04    4.1     0.00001673      -182.7745855693 -9.04E-10

  Trace(PS):                                  116.0000000000
  Electronic density on regular grids:       -115.9999999994        0.0000000006
  Core density on regular grids:              115.9999999914       -0.0000000086
  Total charge density on r-space grids:       -0.0000000080
  Total charge density g-space grids:          -0.0000000080

    17 DIIS/Diag.  0.14E-05    4.0     0.00000430      -182.7745855697 -3.24E-10

  *** SCF run converged in    17 steps ***


  Electronic density on regular grids:       -115.9999999994        0.0000000006
  Core density on regular grids:              115.9999999914       -0.0000000086
  Total charge density on r-space grids:       -0.0000000080
  Total charge density g-space grids:          -0.0000000080

  Overlap energy of the core charge distribution:               0.00002204497365
  Self energy of the core charge distribution:               -431.83660111351662
  Core Hamiltonian energy:                                    133.77450680979416
  Hartree energy:                                             167.36823110096336
  Exchange-correlation energy:                                -52.08074441188747

  Total energy:                                              -182.77458556967292

 !-----------------------------------------------------------------------------!
                     Mulliken Population Analysis

 #  Atom  Element  Kind  Atomic population                           Net charge
       1     N        1          4.792876                              0.207124
       2     C        2          3.810760                              0.189240
       3     C        2          4.301880                             -0.301880
       4     C        2          4.032991                             -0.032991
       5     C        2          4.303690                             -0.303690
       6     C        2          3.807917                              0.192083
       7     C        2          4.301679                             -0.301679
       8     C        2          4.032636                             -0.032636
       9     C        2          3.988984                              0.011016
      10     C        2          3.988391                              0.011609
      11     C        2          4.249747                             -0.249747
      12     C        2          3.989029                              0.010971
      13     C        2          4.251447                             -0.251447
      14     C        2          4.298105                             -0.298105
      15     C        2          4.038208                             -0.038208
      16     C        2          3.994153                              0.005847
      17     C        2          4.302607                             -0.302607
      18     C        2          3.989393                              0.010607
      19     C        2          4.251394                             -0.251394
      20     C        2          3.993934                              0.006066
      21     C        2          4.298819                             -0.298819
      22     C        2          3.808216                              0.191784
      23     O        3          6.152311                             -0.152311
      24     O        3          6.156183                             -0.156183
      25     O        3          6.152192                             -0.152192
      26     H        4          0.741137                              0.258863
      27     H        4          0.741015                              0.258985
      28     H        4          0.751921                              0.248079
      29     H        4          0.740886                              0.259114
      30     H        4          0.756762                              0.243238
      31     H        4          0.741518                              0.258482
      32     H        4          0.740865                              0.259135
      33     H        4          0.756893                              0.243107
      34     H        4          0.741460                              0.258540
 # Total charge                            116.000000                  0.000000

 !-----------------------------------------------------------------------------!

 !-----------------------------------------------------------------------------!
                           Hirshfeld Charges

  #Atom  Element  Kind  Ref Charge     Population                    Net charge
      1       N      1       5.000          5.272                        -0.272
      2       C      2       4.000          3.876                         0.124
      3       C      2       4.000          3.984                         0.016
      4       C      2       4.000          3.708                         0.292
      5       C      2       4.000          3.983                         0.017
      6       C      2       4.000          3.875                         0.125
      7       C      2       4.000          3.984                         0.016
      8       C      2       4.000          3.708                         0.292
      9       C      2       4.000          4.012                        -0.012
     10       C      2       4.000          4.012                        -0.012
     11       C      2       4.000          4.035                        -0.035
     12       C      2       4.000          4.013                        -0.013
     13       C      2       4.000          4.037                        -0.037
     14       C      2       4.000          3.984                         0.016
     15       C      2       4.000          3.708                         0.292
     16       C      2       4.000          4.014                        -0.014
     17       C      2       4.000          3.983                         0.017
     18       C      2       4.000          4.013                        -0.013
     19       C      2       4.000          4.037                        -0.037
     20       C      2       4.000          4.014                        -0.014
     21       C      2       4.000          3.984                         0.016
     22       C      2       4.000          3.875                         0.125
     23       O      3       6.000          6.502                        -0.502
     24       O      3       6.000          6.506                        -0.506
     25       O      3       6.000          6.502                        -0.502
     26       H      4       1.000          0.926                         0.074
     27       H      4       1.000          0.926                         0.074
     28       H      4       1.000          0.937                         0.063
     29       H      4       1.000          0.927                         0.073
     30       H      4       1.000          0.940                         0.060
     31       H      4       1.000          0.928                         0.072
     32       H      4       1.000          0.927                         0.073
     33       H      4       1.000          0.940                         0.060
     34       H      4       1.000          0.928                         0.072

  Total Charge                                                            0.000
 !-----------------------------------------------------------------------------!

  Trace(PS):                                  116.0000000000
  Electronic density on regular grids:       -115.9999999994        0.0000000006
  Core density on regular grids:              115.9999999914       -0.0000000086
  Total charge density on r-space grids:       -0.0000000080
  Total charge density g-space grids:          -0.0000000080


 ENERGY| Total FORCE_EVAL ( QS ) energy (a.u.):             -182.774585569660104


 -------------------------------------------------------------------------------
 -                                                                             -
 -                                DBCSR STATISTICS                             -
 -                                                                             -
 -------------------------------------------------------------------------------
 COUNTER                                    TOTAL       BLAS       SMM       ACC
 flops    5 x    5 x  370                12987000     100.0%      0.0%      0.0%
 flops   13 x    5 x  370                95238000     100.0%      0.0%      0.0%
 flops    5 x   13 x  370                96103800     100.0%      0.0%      0.0%
 flops   13 x   13 x  370               731601000     100.0%      0.0%      0.0%
 flops total                       935.929800E+06     100.0%      0.0%      0.0%
 flops max/rank                    935.929800E+06     100.0%      0.0%      0.0%
 matmuls inhomo. stacks                         0       0.0%      0.0%      0.0%
 matmuls total                              10530     100.0%      0.0%      0.0%
 number of processed stacks                    72     100.0%      0.0%      0.0%
 average stack size                                   146.2       0.0       0.0
 marketing flops                   285.847168E+06
 -------------------------------------------------------------------------------
 # multiplications                             18
 max memory usage/rank             686.551040E+06
 # max total images/rank                        1
 # MPI messages exchanged                       0
 # MPI messages filtered                        0
 MPI messages size (elements):
  total size                         0.000000E+00
  min size                           0.000000E+00
  max size                           0.000000E+00
  average size                       0.000000E+00
 MPI breakdown and total messages size (bytes):
             size <=      128                   0                        0
       128 < size <=     8192                   0                        0
      8192 < size <=    32768                   0                        0
     32768 < size <=   131072                   0                        0
    131072 < size <=  4194304                   0                        0
   4194304 < size <= 16777216                   0                        0
  16777216 < size                               0                        0
 -------------------------------------------------------------------------------

 MEMORY| Estimated peak process memory [MiB]                                 656

 -------------------------------------------------------------------------------
 ----                             MULTIGRID INFO                            ----
 -------------------------------------------------------------------------------
 count for grid        1:          10803          cutoff [a.u.]          140.00
 count for grid        2:           7953          cutoff [a.u.]           46.67
 count for grid        3:           4064          cutoff [a.u.]           15.56
 count for grid        4:            758          cutoff [a.u.]            5.19
 total gridlevel count  :          23578

 -------------------------------------------------------------------------------
 -                                                                             -
 -                           R E F E R E N C E S                               -
 -                                                                             -
 -------------------------------------------------------------------------------
 
 CP2K version 4.1, the CP2K developers group (2016).
 CP2K is freely available from https://www.cp2k.org/ .

 Schuett, Ole; Messmer, Peter; Hutter, Juerg; VandeVondele, Joost. 
 Electronic Structure Calculations on Graphics Processing Units, John Wiley & Sons, Ltd, 173-190 (2016). 
 GPU-Accelerated Sparse Matrix-Matrix Multiplication for Linear Scaling Density Functional Theory.
 http://dx.doi.org/10.1002/9781118670712.ch8


 Borstnik, U; VandeVondele, J; Weber, V; Hutter, J. 
 PARALLEL COMPUTING, 40 (5-6), 47-58 (2014). 
 Sparse matrix multiplication: The distributed block-compressed sparse
 row library.
 http://dx.doi.org/10.1016/j.parco.2014.03.012


 Hutter, J; Iannuzzi, M; Schiffmann, F; VandeVondele, J. 
 WILEY INTERDISCIPLINARY REVIEWS-COMPUTATIONAL MOLECULAR SCIENCE, 4 (1), 15-25 (2014). 
 CP2K: atomistic simulations of condensed matter systems.
 http://dx.doi.org/10.1002/wcms.1159


 Krack, M. 
 THEORETICAL CHEMISTRY ACCOUNTS, 114 (1-3), 145-152 (2005). 
 Pseudopotentials for H to Kr optimized for gradient-corrected
 exchange-correlation functionals.
 http://dx.doi.org/10.1007/s00214-005-0655-y


 VandeVondele, J; Krack, M; Mohamed, F; Parrinello, M; Chassaing, T;
 Hutter, J. COMPUTER PHYSICS COMMUNICATIONS, 167 (2), 103-128 (2005). 
 QUICKSTEP: Fast and accurate density functional calculations using a
 mixed Gaussian and plane waves approach.
 http://dx.doi.org/10.1016/j.cpc.2004.12.014


 Frigo, M; Johnson, SG. 
 PROCEEDINGS OF THE IEEE, 93 (2), 216-231 (2005). 
 The design and implementation of FFTW3.
 http://dx.doi.org/10.1109/JPROC.2004.840301


 Hartwigsen, C; Goedecker, S; Hutter, J. 
 PHYSICAL REVIEW B, 58 (7), 3641-3662 (1998). 
 Relativistic separable dual-space Gaussian pseudopotentials from H to Rn.
 http://dx.doi.org/10.1103/PhysRevB.58.3641


 Lippert, G; Hutter, J; Parrinello, M. 
 MOLECULAR PHYSICS, 92 (3), 477-487 (1997). 
 A hybrid Gaussian and plane wave density functional scheme.
 http://dx.doi.org/10.1080/002689797170220


 Goedecker, S; Teter, M; Hutter, J. 
 PHYSICAL REVIEW B, 54 (3), 1703-1710 (1996). 
 Separable dual-space Gaussian pseudopotentials.
 http://dx.doi.org/10.1103/PhysRevB.54.1703


 -------------------------------------------------------------------------------
 -                                                                             -
 -                                T I M I N G                                  -
 -                                                                             -
 -------------------------------------------------------------------------------
 SUBROUTINE                       CALLS  ASD         SELF TIME        TOTAL TIME
                                MAXIMUM       AVERAGE  MAXIMUM  AVERAGE  MAXIMUM
 CP2K                                 1  1.0    0.005    0.005   75.042   75.042
 qs_forces                            1  2.0    0.000    0.000   73.049   73.049
 qs_energies                          1  3.0    0.000    0.000   70.328   70.328
 scf_env_do_scf                       1  4.0    0.000    0.000   67.813   67.813
 scf_env_do_scf_inner_loop           17  5.0    0.001    0.001   67.813   67.813
 rebuild_ks_matrix                   18  6.8    0.000    0.000   39.422   39.422
 qs_ks_build_kohn_sham_matrix        18  7.8    0.003    0.003   39.422   39.422
 qs_ks_update_qs_env                 17  6.0    0.000    0.000   36.987   36.987
 pw_transfer                        217 10.1    0.011    0.011   32.338   32.338
 fft_wrap_pw1pw2                    181 11.1    0.002    0.002   31.866   31.866
 qs_rho_update_rho                   18  6.0    0.000    0.000   31.356   31.356
 calculate_rho_elec                  18  7.0   14.775   14.775   31.356   31.356
 fft_wrap_pw1pw2_140                 73 11.6    0.611    0.611   29.264   29.264
 sum_up_and_integrate                18  8.8    0.135    0.135   25.239   25.239
 integrate_v_rspace                  18  9.8   15.619   15.619   25.104   25.104
 fft3d_s                            183 13.0   24.191   24.191   24.192   24.192
 density_rs2pw                       18  8.0    0.001    0.001   16.309   16.309
 potential_pw2rs                     18 10.8    0.022    0.022    9.480    9.480
 pw_gather_s                         91 12.5    4.903    4.903    4.903    4.903
 qs_vxc_create                       18  8.8    0.000    0.000    4.647    4.647
 xc_vxc_pw_create                    18  9.8    0.562    0.562    4.646    4.646
 xc_rho_set_and_dset_create          18 10.8    0.000    0.000    4.084    4.084
 xc_functional_eval                  18 11.8    3.999    3.999    3.999    3.999
 qs_ks_update_qs_env_forces           1  3.0    0.000    0.000    2.441    2.441
 pw_poisson_solve                    18  8.8    1.757    1.757    2.236    2.236
 fft_wrap_pw1pw2_50                  36 12.4    0.043    0.043    2.147    2.147
 pw_scatter_s                        90 13.7    2.104    2.104    2.104    2.104
 qs_init_subsys                       1  2.0    0.002    0.002    1.927    1.927
 qs_env_setup                         1  3.0    0.000    0.000    1.920    1.920
 qs_env_rebuild_pw_env                3  3.7    0.000    0.000    1.920    1.920
 pw_env_rebuild                       1  5.0    0.000    0.000    1.920    1.920
 pw_grid_setup                        4  6.0    0.000    0.000    1.895    1.895
 pw_grid_setup_internal               4  7.0    0.131    0.131    1.895    1.895
 init_scf_run                         1  4.0    0.000    0.000    1.582    1.582
 scf_env_initial_rho_setup            1  5.0    0.000    0.000    1.574    1.574
 pw_grid_sort                         4  8.0    1.150    1.150    1.514    1.514
 -------------------------------------------------------------------------------

 The number of warnings for this run is : 0
 
 -------------------------------------------------------------------------------
  **** **** ******  **  PROGRAM ENDED AT                 2017-02-27 10:48:05.028
 ***** ** ***  *** **   PROGRAM RAN ON                                      bang
 **    ****   ******    PROGRAM RAN BY                                  oschuett
 ***** **    ** ** **   PROGRAM PROCESS ID                                  5600
  **** **  *******  **  PROGRAM STOPPED IN            /data/git/PPSTM/tests/TOAT
