------------------------------------------------------------
          Invoking FHI-aims ...

          When using FHI-aims, please cite the following reference:

            Volker Blum, Ralf Gehrke, Felix Hanke, Paula Havu,
            Ville Havu, Xinguo Ren, Karsten Reuter, and Matthias Scheffler,
            'Ab Initio Molecular Simulations with Numeric Atom-Centered Orbitals',
            Computer Physics Communications 180, 2175-2196 (2009)

          In addition, many other developments in FHI-aims are likely important for
          your particular application. If so, please cite them. A partial list of references
          is written at the end of this file. Thank you for giving credit to the authors
          of these developments.

          For general information about FHI-aims please find us at

            https://fhi-aims.org

          Online tutorials can be found at

            https://fhi-aims-club.gitlab.io/tutorials/tutorials-overview/

          For any questions about FHI-aims, please visit our slack channel at

            https://fhi-aims.slack.com

          and our main development and support site at

            https://aims-git.rz-berlin.mpg.de .

          The latter site, in particular, has a wiki to collect information, as well
          as an issue tracker to log discussions, suggest improvements, and report issues
          or bugs. https://aims-git.rz-berlin.mpg.de is also the main development site
          of the project and all new and updated code versions can be obtained there.
          Please send an email to aims-coordinators@fhi-berlin.mpg.de and we will add
          you to these sites. They are for you and everyone is welcome there.

------------------------------------------------------------



  Date     :  20240103, Time     :  225856.161
  Time zero on CPU 1             :   0.137730000000000E+00  s.
  Internal wall clock time zero  :           473554736.161  s.

  FHI-aims created a unique identifier for this run for later identification
  aims_uuid : D420DA45-45C5-4BCD-A8A9-34DE265D4576

  Build configuration of the current instance of FHI-aims
  -------------------------------------------------------
  FHI-aims version      : 230629
  Commit number         : ff24b2581
  CMake host system     : Linux-3.10.0-1160.83.1.el7.x86_64
  CMake version         : 3.21.4
  Fortran compiler      : /share/apps/spack/envs/fgci-centos7-generic/software/intel-parallel-studio/cluster.2020.0/ttn75qk/compilers_and_libraries_2020.0.166/linux/mpi/intel64/bin/mpiifort (Intel) version 19.1.0.20191121
  Fortran compiler flags: -O3 -ip -fp-model precise
  C compiler            : /share/apps/spack/envs/fgci-centos7-generic/software/intel-parallel-studio/cluster.2020.0/ttn75qk/bin/icc (Intel) version 19.1.0.20191121
  C compiler flags      : -O3 -ip -fp-model precise -std=gnu99
  C++ compiler          : /usr/lib64/ccache/c++ (GNU) version 4.8.5
  C++ compiler flags    :
  HIP compiler          :
  HIP compiler flags    :
  HIP GPU arch          :
  Using MPI
  Using ScaLAPACK
  Using LibXC
  Using i-PI
  Using RLSY
  Linking against: /share/apps/spack/envs/fgci-centos7-generic/software/intel-parallel-studio/cluster.2020.0/ttn75qk/compilers_and_libraries_2020.0.166/linux/mkl/lib/intel64/libmkl_scalapack_lp64.so
                   /share/apps/spack/envs/fgci-centos7-generic/software/intel-parallel-studio/cluster.2020.0/ttn75qk/compilers_and_libraries_2020.0.166/linux/mkl/lib/intel64/libmkl_blacs_intelmpi_lp64.so
                   /share/apps/spack/envs/fgci-centos7-generic/software/intel-parallel-studio/cluster.2020.0/ttn75qk/compilers_and_libraries_2020.0.166/linux/mkl/lib/intel64/libmkl_intel_lp64.so
                   /share/apps/spack/envs/fgci-centos7-generic/software/intel-parallel-studio/cluster.2020.0/ttn75qk/compilers_and_libraries_2020.0.166/linux/mkl/lib/intel64/libmkl_sequential.so
                   /share/apps/spack/envs/fgci-centos7-generic/software/intel-parallel-studio/cluster.2020.0/ttn75qk/compilers_and_libraries_2020.0.166/linux/mkl/lib/intel64/libmkl_core.so

  Using        1 parallel tasks.
  Task        0 on host skl24.int.triton.aalto.fi reporting.

  Obtaining array dimensions for all initial allocations:
  
  -----------------------------------------------------------------------
  Parsing control.in (first pass over file, find array dimensions only).
  The contents of control.in will be repeated verbatim below
  unless switched off by setting 'verbatim_writeout .false.' .
  in the first line of control.in .
  -----------------------------------------------------------------------
  
  # Physical settings
    xc                 pbe
    spin               none
    relativistic       atomic_zora scalar
    #default_initial_moment 0.5
  
    #vdw_correction_hirshfeld
  
    #preconditioner kerker off
    #charge_mix_param      0.1000000
    #occupation_type gaussian   0.050000 #E-01
  
  # SCF settings
    sc_accuracy_rho    1E-4
    sc_accuracy_eev    1E-2
    sc_accuracy_etot   1E-6
    sc_iter_limit      400
  
  # k-point grid
    k_grid  1 1 1
  
  
  # relaxation
    #relax_geometry bfgs 0.01
  
  # outputs
  #restart restart
    #output mulliken
    output band 0 0 0 0.5 0.5 0.0 2 G K
    output eigenvectors
    output cube hartree_potential
      cube edge 300 0.1 0.0 0.0
      cube edge 300 0.0 0.1 0.0
      cube edge 300 0.0 0.0 0.1
  
  
  
  ################################################################################
  #
  #  FHI-aims code project
  #  VB, Fritz-Haber Institut, 2009
  #
  #  Suggested "light" defaults for H atom (to be pasted into control.in file)
  #  Be sure to double-check any results obtained with these settings for post-processing,
  #  e.g., with the "tight" defaults and larger basis sets.
  #
  ################################################################################
    species        H
  #     global species definitions
      nucleus             1
      mass                1.00794
  #
      l_hartree           4
  #
      cut_pot             3.5  1.5  1.0
      basis_dep_cutoff    1e-4
  #
      radial_base         24 5.0
      radial_multiplier   1
      angular_grids       specified
        division   0.2421   50
        division   0.3822  110
        division   0.4799  194
        division   0.5341  302
  #      division   0.5626  434
  #      division   0.5922  590
  #      division   0.6542  770
  #      division   0.6868 1202
  #      outer_grid  770
        outer_grid  302
  ################################################################################
  #
  #  Definition of "minimal" basis
  #
  ################################################################################
  #     valence basis states
      valence      1  s   1.
  #     ion occupancy
      ion_occ      1  s   0.5
  ################################################################################
  #
  #  Suggested additional basis functions. For production calculations,
  #  uncomment them one after another (the most important basis functions are
  #  listed first).
  #
  #  Basis constructed for dimers: 0.5 A, 0.7 A, 1.0 A, 1.5 A, 2.5 A
  #
  ################################################################################
  #  "First tier" - improvements: -1014.90 meV to -62.69 meV
       hydro 2 s 2.1
       hydro 2 p 3.5
  #  "Second tier" - improvements: -12.89 meV to -1.83 meV
  #     hydro 1 s 0.85
  #     hydro 2 p 3.7
  #     hydro 2 s 1.2
  #     hydro 3 d 7
  #  "Third tier" - improvements: -0.25 meV to -0.12 meV
  #     hydro 4 f 11.2
  #     hydro 3 p 4.8
  #     hydro 4 d 9
  #     hydro 3 s 3.2
  ################################################################################
  #
  #  FHI-aims code project
  #  VB, Fritz-Haber Institut, 2009
  #
  #  Suggested "light" defaults for C atom (to be pasted into control.in file)
  #  Be sure to double-check any results obtained with these settings for post-processing,
  #  e.g., with the "tight" defaults and larger basis sets.
  #
  ################################################################################
    species        C
  #     global species definitions
      nucleus             6
      mass                12.0107
  #
      l_hartree           4
  #
      cut_pot             3.5  1.5  1.0
      basis_dep_cutoff    1e-4
  #
      radial_base         34 5.0
      radial_multiplier   1
      angular_grids specified
        division   0.3326   50
        division   0.5710  110
        division   0.7727  194
        division   0.8772  302
  #      division   0.9334  434
  #      division   0.9625  590
  #      division   0.9924  770
  #      division   1.0230  974
  #      division   1.4589 1202
  #     outer_grid  974
       outer_grid 302
  ################################################################################
  #
  #  Definition of "minimal" basis
  #
  ################################################################################
  #     valence basis states
      valence      2  s   2.
      valence      2  p   2.
  #     ion occupancy
      ion_occ      2  s   1.
      ion_occ      2  p   1.
  ################################################################################
  #
  #  Suggested additional basis functions. For production calculations,
  #  uncomment them one after another (the most important basis functions are
  #  listed first).
  #
  #  Constructed for dimers: 1.0 A, 1.25 A, 1.5 A, 2.0 A, 3.0 A
  #
  ################################################################################
  #  "First tier" - improvements: -1214.57 meV to -155.61 meV
       hydro 2 p 1.7
       hydro 3 d 6
       hydro 2 s 4.9
  #  "Second tier" - improvements: -67.75 meV to -5.23 meV
  #     hydro 4 f 9.8
  #     hydro 3 p 5.2
  #     hydro 3 s 4.3
  #     hydro 5 g 14.4
  #     hydro 3 d 6.2
  #  "Third tier" - improvements: -2.43 meV to -0.60 meV
  #     hydro 2 p 5.6
  #     hydro 2 s 1.4
  #     hydro 3 d 4.9
  #     hydro 4 f 11.2
  #  "Fourth tier" - improvements: -0.39 meV to -0.18 meV
  #     hydro 2 p 2.1
  #     hydro 5 g 16.4
  #     hydro 4 d 13.2
  #     hydro 3 s 13.6
  #     hydro 4 f 17.6
  #  Further basis functions - improvements: -0.08 meV and below
  #     hydro 3 s 2
  #     hydro 3 p 6
  #     hydro 4 d 20
  ################################################################################
  #
  #  FHI-aims code project
  #  VB, Fritz-Haber Institut, 2009
  #
  #  Suggested "light" defaults for O atom (to be pasted into control.in file)
  #  Be sure to double-check any results obtained with these settings for post-processing,
  #  e.g., with the "tight" defaults and larger basis sets.
  #
  ################################################################################
    species        O
  #     global species definitions
      nucleus             8
      mass                15.9994
  #
      l_hartree           4
  #
      cut_pot             3.5  1.5  1.0
      basis_dep_cutoff    1e-4
  #
      radial_base         36 5.0
      radial_multiplier   1
       angular_grids specified
        division   0.2659   50
        division   0.4451  110
        division   0.6052  194
        division   0.7543  302
  #      division   0.8014  434
  #      division   0.8507  590
  #      division   0.8762  770
  #      division   0.9023  974
  #      division   1.2339 1202
  #      outer_grid 974
        outer_grid 302
  ################################################################################
  #
  #  Definition of "minimal" basis
  #
  ################################################################################
  #     valence basis states
      valence      2  s   2.
      valence      2  p   4.
  #     ion occupancy
      ion_occ      2  s   1.
      ion_occ      2  p   3.
  ################################################################################
  #
  #  Suggested additional basis functions. For production calculations,
  #  uncomment them one after another (the most important basis functions are
  #  listed first).
  #
  #  Constructed for dimers: 1.0 A, 1.208 A, 1.5 A, 2.0 A, 3.0 A
  #
  ################################################################################
  #  "First tier" - improvements: -699.05 meV to -159.38 meV
       hydro 2 p 1.8
       hydro 3 d 7.6
       hydro 3 s 6.4
  #  "Second tier" - improvements: -49.91 meV to -5.39 meV
  #     hydro 4 f 11.6
  #     hydro 3 p 6.2
  #     hydro 3 d 5.6
  #     hydro 5 g 17.6
  #     hydro 1 s 0.75
  #  "Third tier" - improvements: -2.83 meV to -0.50 meV
  #     ionic 2 p auto
  #     hydro 4 f 10.8
  #     hydro 4 d 4.7
  #     hydro 2 s 6.8
  #  "Fourth tier" - improvements: -0.40 meV to -0.12 meV
  #     hydro 3 p 5
  #     hydro 3 s 3.3
  #     hydro 5 g 15.6
  #     hydro 4 f 17.6
  #     hydro 4 d 14
  # Further basis functions - -0.08 meV and below
  #     hydro 3 s 2.1
  #     hydro 4 d 11.6
  #     hydro 3 p 16
  #     hydro 2 s 17.2
  ################################################################################
  #
  #  FHI-aims code project
  #  VB, Fritz-Haber Institut, 2009
  #
  #  Suggested "light" defaults for Ag atom (to be pasted into control.in file)
  #  Be sure to double-check any results obtained with these settings for post-processing,
  #  e.g., with the "tight" defaults and larger basis sets.
  #
  ################################################################################
    species        Ag
  #     global species definitions
      nucleus             47
      mass                107.8682
  #
      l_hartree           4
  #
      cut_pot             3.5  1.5  1.0
      basis_dep_cutoff    1e-4
  #
      radial_base         62 5.0
      radial_multiplier   1
      angular_grids specified
        division   0.5617   50
        division   0.9788  110
        division   1.2700  194
        division   1.5678  302
  #      division   2.1195  434
  #      division   2.1949  590
  #      division   2.2741  770
  #      division   2.8497 1202
  #      outer_grid  974
        outer_grid  302
  ################################################################################
  #
  #  Definition of "minimal" basis
  #
  ################################################################################
  #     valence basis states
      valence      5  s   1.
      valence      4  p   6.
      valence      4  d  10.
  #     ion occupancy
      ion_occ     5  s   0.
      ion_occ     4  p   6.
      ion_occ     4  d   9.
  ################################################################################
  #
  #  Suggested additional basis functions. For production calculations,
  #  uncomment them one after another (the most important basis functions are
  #  listed first).
  #
  #  Constructed for dimers: 2.1 A, 2.45 A, 3.00 A, 4.00 A
  #
  ################################################################################
  #  "First tier" - max. impr. -144.99  meV, min. impr. -3.42 meV
       ionic 5 p auto
       hydro 4 f 7.6
       hydro 3 s 2.6
  #     hydro 5 g 9.8
       hydro 4 d 8.4
  #  "Second tier" - max. impr. -3.10  meV, min. impr. -0.64 meV
  #     hydro 5 f 16.8
  #     hydro 6 h 13.2
  #     hydro 4 p 5
  #     hydro 4 d 4.3
  #     hydro 5 s 17.2
  #  "Third tier" - max. impr. -0.48  meV, min. impr. -0.12 meV
  #     hydro 4 f 19.2
  #     hydro 5 f 8.4
  #     hydro 6 p 12
  #     hydro 5 g 12.8
  #     hydro 5 d 8.4
  #     hydro 5 s 5.8
  #     hydro 6 h 15.2
  
  
  
  -----------------------------------------------------------------------
  Completed first pass over input file control.in .
  -----------------------------------------------------------------------
  
  
  -----------------------------------------------------------------------
  Parsing geometry.in (first pass over file, find array dimensions only).
  The contents of geometry.in will be repeated verbatim below
  unless switched off by setting 'verbatim_writeout .false.' .
  in the first line of geometry.in .
  -----------------------------------------------------------------------
  
  #=======================================================
  #FHI-aims file: geometry-cell.in
  #Created using the Atomic Simulation Environment (ASE)
  #=======================================================
  lattice_vector 30.0 0.0 0.0
  lattice_vector 0.0 30.0 0.0
  lattice_vector 0.0 0.0 30.0
  
  atom 12.1464900000000000 15.0064799999999998 1.0000000000000000 C
  atom 11.4180399999999995 13.7912400000000002 1.0000000000000000 C
  atom 12.1095899999999990 12.5912400000000009 1.0000000000000000 C
  atom 13.5020509999999998 12.5803600000000007 1.0000000000000000 C
  atom 14.2641700000000000 13.7502899999999997 1.0000000000000000 C
  atom 13.5723899999999986 15.0003600000000006 1.0000000000000000 C
  atom 14.2733599999999985 16.2464700000000022 1.0000000000000000 C
  atom 13.5248799999999996 17.4214990000000007 1.0000000000000000 C
  atom 12.1357199999999992 17.4269889999999990 1.0000000000000000 C
  atom 11.4349509999999981 16.2302800000000005 1.0000000000000000 C
  atom 16.4345490000000005 15.0003600000000006 1.0000000000000000 C
  atom 15.7347399999999986 13.7532500000000013 1.0000000000000000 C
  atom 16.4858100000000007 12.5798699999999997 1.0000000000000000 C
  atom 17.8766089999999984 12.5774900000000009 1.0000000000000000 C
  atom 18.5742879999999992 13.7753910000000008 1.0000000000000000 C
  atom 17.8603899999999989 14.9971700000000006 1.0000000000000000 C
  atom 18.5858089999999976 16.2150199999999991 1.0000000000000000 C
  atom 17.8928189999999994 17.4148780000000016 1.0000000000000000 C
  atom 16.5012489999999978 17.4214000000000020 1.0000000000000000 C
  atom 15.7424799999999987 16.2498600000000017 1.0000000000000000 C
  atom 20.0663199999999975 13.7719800000000010 1.0000000000000000 C
  atom 20.7806399999999982 14.9752900000000011 1.0000000000000000 O
  atom 20.0827090000000013 16.2029600000000009 1.0000000000000000 C
  atom 9.2253699999999981 15.0384000000000011 1.0000000000000000 O
  atom 9.9202899999999978 13.8088600000000010 1.0000000000000000 C
  atom 9.9429419999999986 16.2395379999999996 1.0000000000000000 C
  atom 20.7950599999999994 17.1513090000000012 1.0000000000000000 O
  atom 20.7561699999999973 12.8021910000000005 1.0000000000000000 O
  atom 9.2560520000000004 17.2116000000000007 1.0000000000000000 O
  atom 9.2049399999999988 12.8628900000000002 1.0000000000000000 O
  atom 11.5960399999999986 11.6422010000000000 1.0000000000000000 H
  atom 13.9768200000000000 11.6121300000000005 1.0000000000000000 H
  atom 14.0102799999999998 18.3773499999999999 1.0000000000000000 H
  atom 11.6190099999999994 18.3747100000000003 1.0000000000000000 H
  atom 16.0020899999999990 11.6230910000000005 1.0000000000000000 H
  atom 18.3956680000000006 11.6309700000000014 1.0000000000000000 H
  atom 18.4055800000000005 18.3645199999999988 1.0000000000000000 H
  atom 16.0235400000000006 18.3878699999999995 1.0000000000000000 H
  
  -----------------------------------------------------------------------
  Completed first pass over input file geometry.in .
  -----------------------------------------------------------------------
  

  Basic array size parameters:
  | Number of species                 :        4
  | Number of atoms                   :       38
  | Number of lattice vectors         :        3
  | Max. basis fn. angular momentum   :        3
  | Max. atomic/ionic basis occupied n:        5
  | Max. number of basis fn. types    :        3
  | Max. radial fns per species/type  :       10
  | Max. logarithmic grid size        :     1446
  | Max. radial integration grid size :       62
  | Max. angular integration grid size:      302
  | Max. angular grid division number :        8
  | Radial grid for Hartree potential :     1446
  | Number of spin channels           :        1
  | Cube type output requested        :        1

------------------------------------------------------------
          Reading file control.in.
------------------------------------------------------------
  XC: Using PBE gradient-corrected functionals.
  Spin treatment: No spin polarisation.
  Scalar relativistic treatment of kinetic energy: on-site free-atom approximation to ZORA.
  Convergence accuracy of self-consistent charge density:  0.1000E-03
  Convergence accuracy of sum of eigenvalues:  0.1000E-01
  Convergence accuracy of total energy:  0.1000E-05
  Maximum number of s.-c. iterations  :   400
  Found k-point grid:         1         1         1

  Plot band    1
  | begin  0.000000  0.000000  0.000000
  | end    0.500000  0.500000  0.000000
  | number of points:    2
  Kohn-Sham eigenvectors will be written out.
  | Cube output options:
 * Cube origin was not provided following cube request. Will be using default value.
 Standard cube format requested.

 
  Reading configuration options for species H                   .
  | Found nuclear charge :   1.0000
  | Found atomic mass :    1.00794000000000      amu
  | Found l_max for Hartree potential  :   4
  | Found cutoff potl. onset [A], width [A], scale factor :    3.50000    1.50000    1.00000
  | Threshold for basis-dependent cutoff potential is   0.100000E-03
  | Found data for basic radial integration grid :    24 points, outermost radius =    5.000 A
  | Found multiplier for basic radial grid :   1
  | Found angular grid specification: user-specified.
  | Specified grid contains     5 separate shells.
  | Check grid settings after all constraints further below.
  | Found free-atom valence shell :  1 s   1.000
  | Found free-ion valence shell :  1 s   0.500
  | Found hydrogenic basis function :  2 s   2.100
  | Found hydrogenic basis function :  2 p   3.500
  Species H                   : Missing cutoff potential type.
  Defaulting to exp(1/x)/(1-x)^2 type cutoff potential.
  Species H : No 'logarithmic' tag. Using default grid for free atom:
  | Default logarithmic grid data [bohr] : 0.1000E-03 0.1000E+03 0.1012E+01
  Species H : On-site basis accuracy parameter (for Gram-Schmidt orthonormalisation) not specified.
  Using default value basis_acc =  0.1000000E-03.
  Species H                   : Using default innermost maximum threshold i_radial=  2 for radial functions.
  Species H                   : Default cutoff onset for free atom density etc. : 0.35000000E+01 AA.
  Species H                   : Basic radial grid will be enhanced according to radial_multiplier =   1, to contain    24 grid points.
 
  Reading configuration options for species C                   .
  | Found nuclear charge :   6.0000
  | Found atomic mass :    12.0107000000000      amu
  | Found l_max for Hartree potential  :   4
  | Found cutoff potl. onset [A], width [A], scale factor :    3.50000    1.50000    1.00000
  | Threshold for basis-dependent cutoff potential is   0.100000E-03
  | Found data for basic radial integration grid :    34 points, outermost radius =    5.000 A
  | Found multiplier for basic radial grid :   1
  | Found angular grid specification: user-specified.
  | Specified grid contains     5 separate shells.
  | Check grid settings after all constraints further below.
  | Found free-atom valence shell :  2 s   2.000
  | Found free-atom valence shell :  2 p   2.000
  | Found free-ion valence shell :  2 s   1.000
  | Found free-ion valence shell :  2 p   1.000
  | Found hydrogenic basis function :  2 p   1.700
  | Found hydrogenic basis function :  3 d   6.000
  | Found hydrogenic basis function :  2 s   4.900
  Species C                   : Missing cutoff potential type.
  Defaulting to exp(1/x)/(1-x)^2 type cutoff potential.
  Species C : No 'logarithmic' tag. Using default grid for free atom:
  | Default logarithmic grid data [bohr] : 0.1000E-03 0.1000E+03 0.1012E+01
  Species C : On-site basis accuracy parameter (for Gram-Schmidt orthonormalisation) not specified.
  Using default value basis_acc =  0.1000000E-03.
  Species C                   : Using default innermost maximum threshold i_radial=  2 for radial functions.
  Species C                   : Default cutoff onset for free atom density etc. : 0.35000000E+01 AA.
  Species C                   : Basic radial grid will be enhanced according to radial_multiplier =   1, to contain    34 grid points.
 
  Reading configuration options for species O                   .
  | Found nuclear charge :   8.0000
  | Found atomic mass :    15.9994000000000      amu
  | Found l_max for Hartree potential  :   4
  | Found cutoff potl. onset [A], width [A], scale factor :    3.50000    1.50000    1.00000
  | Threshold for basis-dependent cutoff potential is   0.100000E-03
  | Found data for basic radial integration grid :    36 points, outermost radius =    5.000 A
  | Found multiplier for basic radial grid :   1
  | Found angular grid specification: user-specified.
  | Specified grid contains     5 separate shells.
  | Check grid settings after all constraints further below.
  | Found free-atom valence shell :  2 s   2.000
  | Found free-atom valence shell :  2 p   4.000
  | Found free-ion valence shell :  2 s   1.000
  | Found free-ion valence shell :  2 p   3.000
  | Found hydrogenic basis function :  2 p   1.800
  | Found hydrogenic basis function :  3 d   7.600
  | Found hydrogenic basis function :  3 s   6.400
  Species O                   : Missing cutoff potential type.
  Defaulting to exp(1/x)/(1-x)^2 type cutoff potential.
  Species O : No 'logarithmic' tag. Using default grid for free atom:
  | Default logarithmic grid data [bohr] : 0.1000E-03 0.1000E+03 0.1012E+01
  Species O : On-site basis accuracy parameter (for Gram-Schmidt orthonormalisation) not specified.
  Using default value basis_acc =  0.1000000E-03.
  Species O                   : Using default innermost maximum threshold i_radial=  2 for radial functions.
  Species O                   : Default cutoff onset for free atom density etc. : 0.35000000E+01 AA.
  Species O                   : Basic radial grid will be enhanced according to radial_multiplier =   1, to contain    36 grid points.
 
  Reading configuration options for species Ag                  .
  | Found nuclear charge :  47.0000
  | Found atomic mass :    107.868200000000      amu
  | Found l_max for Hartree potential  :   4
  | Found cutoff potl. onset [A], width [A], scale factor :    3.50000    1.50000    1.00000
  | Threshold for basis-dependent cutoff potential is   0.100000E-03
  | Found data for basic radial integration grid :    62 points, outermost radius =    5.000 A
  | Found multiplier for basic radial grid :   1
  | Found angular grid specification: user-specified.
  | Specified grid contains     5 separate shells.
  | Check grid settings after all constraints further below.
  | Found free-atom valence shell :  5 s   1.000
  | Found free-atom valence shell :  4 p   6.000
  | Found free-atom valence shell :  4 d  10.000
  | Found free-ion valence shell :  5 s   0.000
  | Found free-ion valence shell :  4 p   6.000
  | Found free-ion valence shell :  4 d   9.000
  | Found ionic basis function :  5 p , default cutoff radius.
  | Found hydrogenic basis function :  4 f   7.600
  | Found hydrogenic basis function :  3 s   2.600
  | Found hydrogenic basis function :  4 d   8.400
  Species Ag                  : Missing cutoff potential type.
  Defaulting to exp(1/x)/(1-x)^2 type cutoff potential.
  Species Ag: No 'logarithmic' tag. Using default grid for free atom:
  | Default logarithmic grid data [bohr] : 0.1000E-03 0.1000E+03 0.1012E+01
  | Will include ionic basis functions of  2.0-fold positive Ag                   ion.
  Species Ag: On-site basis accuracy parameter (for Gram-Schmidt orthonormalisation) not specified.
  Using default value basis_acc =  0.1000000E-03.
  Species Ag                  : Using default innermost maximum threshold i_radial=  2 for radial functions.
  Species Ag                  : Default cutoff onset for free atom density etc. : 0.35000000E+01 AA.
  Species Ag                  : Basic radial grid will be enhanced according to radial_multiplier =   1, to contain    62 grid points.
 
  Finished reading input file 'control.in'.
 
------------------------------------------------------------


------------------------------------------------------------
          Reading geometry description geometry.in.
------------------------------------------------------------
  | The smallest distance between any two atoms is         1.07203745 AA.
  | The first atom of this pair is atom number                      8 .
  | The second atom of this pair is atom number                    33 .
  | Wigner-Seitz cell of the first atom image           0     0     0 .
  | (The Wigner-Seitz cell of the second atom is 0 0 0  by definition.)

  Symmetry information by spglib:
  | Precision set to  0.1E-04
  | Number of Operations  : 2
  | Space group           : 6
  | International         : Pm
  | Schoenflies           : Cs^1
  Input structure read successfully.
  The structure contains       38 atoms,  and a total of        200.000 electrons.

  Input geometry:
  | Unit cell:
  |       30.00000000        0.00000000        0.00000000
  |        0.00000000       30.00000000        0.00000000
  |        0.00000000        0.00000000       30.00000000
  | Atomic structure:
  |       Atom                x [A]            y [A]            z [A]
  |    1: Species C            12.14649000       15.00648000        1.00000000
  |    2: Species C            11.41804000       13.79124000        1.00000000
  |    3: Species C            12.10959000       12.59124000        1.00000000
  |    4: Species C            13.50205100       12.58036000        1.00000000
  |    5: Species C            14.26417000       13.75029000        1.00000000
  |    6: Species C            13.57239000       15.00036000        1.00000000
  |    7: Species C            14.27336000       16.24647000        1.00000000
  |    8: Species C            13.52488000       17.42149900        1.00000000
  |    9: Species C            12.13572000       17.42698900        1.00000000
  |   10: Species C            11.43495100       16.23028000        1.00000000
  |   11: Species C            16.43454900       15.00036000        1.00000000
  |   12: Species C            15.73474000       13.75325000        1.00000000
  |   13: Species C            16.48581000       12.57987000        1.00000000
  |   14: Species C            17.87660900       12.57749000        1.00000000
  |   15: Species C            18.57428800       13.77539100        1.00000000
  |   16: Species C            17.86039000       14.99717000        1.00000000
  |   17: Species C            18.58580900       16.21502000        1.00000000
  |   18: Species C            17.89281900       17.41487800        1.00000000
  |   19: Species C            16.50124900       17.42140000        1.00000000
  |   20: Species C            15.74248000       16.24986000        1.00000000
  |   21: Species C            20.06632000       13.77198000        1.00000000
  |   22: Species O            20.78064000       14.97529000        1.00000000
  |   23: Species C            20.08270900       16.20296000        1.00000000
  |   24: Species O             9.22537000       15.03840000        1.00000000
  |   25: Species C             9.92029000       13.80886000        1.00000000
  |   26: Species C             9.94294200       16.23953800        1.00000000
  |   27: Species O            20.79506000       17.15130900        1.00000000
  |   28: Species O            20.75617000       12.80219100        1.00000000
  |   29: Species O             9.25605200       17.21160000        1.00000000
  |   30: Species O             9.20494000       12.86289000        1.00000000
  |   31: Species H            11.59604000       11.64220100        1.00000000
  |   32: Species H            13.97682000       11.61213000        1.00000000
  |   33: Species H            14.01028000       18.37735000        1.00000000
  |   34: Species H            11.61901000       18.37471000        1.00000000
  |   35: Species H            16.00209000       11.62309100        1.00000000
  |   36: Species H            18.39566800       11.63097000        1.00000000
  |   37: Species H            18.40558000       18.36452000        1.00000000
  |   38: Species H            16.02354000       18.38787000        1.00000000

  Lattice parameters for 3D lattice (in Angstroms) :    30.000000   30.000000   30.000000
  Angle(s) between unit vectors (in degrees)       :    90.000000   90.000000   90.000000


  Quantities derived from the lattice vectors (in Angstrom^-1):
  | Reciprocal lattice vector 1:  0.209440  0.000000  0.000000
  | Reciprocal lattice vector 2:  0.000000  0.209440  0.000000
  | Reciprocal lattice vector 3:  0.000000  0.000000  0.209440
  | Unit cell volume                               :   0.270000E+05  Angstrom^3

  Fractional coordinates:
                         L1                L2                L3
       atom_frac         0.40488300        0.50021600        0.03333333  C
       atom_frac         0.38060133        0.45970800        0.03333333  C
       atom_frac         0.40365300        0.41970800        0.03333333  C
       atom_frac         0.45006837        0.41934533        0.03333333  C
       atom_frac         0.47547233        0.45834300        0.03333333  C
       atom_frac         0.45241300        0.50001200        0.03333333  C
       atom_frac         0.47577867        0.54154900        0.03333333  C
       atom_frac         0.45082933        0.58071663        0.03333333  C
       atom_frac         0.40452400        0.58089963        0.03333333  C
       atom_frac         0.38116503        0.54100933        0.03333333  C
       atom_frac         0.54781830        0.50001200        0.03333333  C
       atom_frac         0.52449133        0.45844167        0.03333333  C
       atom_frac         0.54952700        0.41932900        0.03333333  C
       atom_frac         0.59588697        0.41924967        0.03333333  C
       atom_frac         0.61914293        0.45917970        0.03333333  C
       atom_frac         0.59534633        0.49990567        0.03333333  C
       atom_frac         0.61952697        0.54050067        0.03333333  C
       atom_frac         0.59642730        0.58049593        0.03333333  C
       atom_frac         0.55004163        0.58071333        0.03333333  C
       atom_frac         0.52474933        0.54166200        0.03333333  C
       atom_frac         0.66887733        0.45906600        0.03333333  C
       atom_frac         0.69268800        0.49917633        0.03333333  O
       atom_frac         0.66942363        0.54009867        0.03333333  C
       atom_frac         0.30751233        0.50128000        0.03333333  O
       atom_frac         0.33067633        0.46029533        0.03333333  C
       atom_frac         0.33143140        0.54131793        0.03333333  C
       atom_frac         0.69316867        0.57171030        0.03333333  O
       atom_frac         0.69187233        0.42673970        0.03333333  O
       atom_frac         0.30853507        0.57372000        0.03333333  O
       atom_frac         0.30683133        0.42876300        0.03333333  O
       atom_frac         0.38653467        0.38807337        0.03333333  H
       atom_frac         0.46589400        0.38707100        0.03333333  H
       atom_frac         0.46700933        0.61257833        0.03333333  H
       atom_frac         0.38730033        0.61249033        0.03333333  H
       atom_frac         0.53340300        0.38743637        0.03333333  H
       atom_frac         0.61318893        0.38769900        0.03333333  H
       atom_frac         0.61351933        0.61215067        0.03333333  H
       atom_frac         0.53411800        0.61292900        0.03333333  H

 
  Finished reading input file 'geometry.in'.
 

 
  Consistency checks for stacksize environment parameter are next.
 
  | Maximum stacksize for task 0: unlimited
  | Current stacksize for task 0: unlimited
 
  Consistency checks for the contents of control.in are next.
 
  MPI_IN_PLACE appears to work with this MPI implementation.
  | Keeping use_mpi_in_place .true. (see manual).
  Target number of points in a grid batch is not set. Defaulting to  100
  Method for grid partitioning is not set. Defaulting to parallel hash+maxmin partitioning.
  Batch size limit is not set. Defaulting to    200
  By default, will store active basis functions for each batch.
  If in need of memory, prune_basis_once .false. can be used to disable this option.
  communication_type for Hartree potential was not specified.
  Defaulting to calc_hartree .
  Defaulting to Pulay charge density mixer.
  Pulay mixer: Number of relevant iterations not set.
  Defaulting to    8 iterations.
  Pulay mixer: Number of initial linear mixing iterations not set.
  Defaulting to    0 iterations.
  Work space size for distributed Hartree potential not set.
  Defaulting to   0.200000E+03 MB.
  Mixing parameter for charge density mixing has not been set.
  Using default: charge_mix_param =     0.0500.
  The mixing parameter will be adjusted in iteration number     2 of the first full s.c.f. cycle only.
  Algorithm-dependent basis array size parameters:
  | n_max_pulay                         :        8
  Presetting      1001 iterations before the initial mixing cycle
  is restarted anyway using the sc_init_iter criterion / keyword.
  Presetting a factor      1.000 between actual scf density residual
  and density convergence criterion sc_accuracy_rho below which sc_init_iter
  takes no effect.
  Calculation of forces was not defined in control.in. No forces will be calculated.
  Geometry relaxation not requested: no relaxation will be performed.
  No accuracy limit for integral partition fn. given. Defaulting to  0.1000E-14.
  No threshold value for u(r) in integrations given. Defaulting to  0.1000E-05.
  No occupation type (smearing scheme) given. Defaulting to Gaussian broadening, width =  0.1000E-01 eV.
  The width will be adjusted in iteration number     2 of the first full s.c.f. cycle only.
  S.C.F. convergence parameters will be adjusted in iteration number     2 of the first full s.c.f. cycle only.
  No accuracy for occupation numbers given. Defaulting to  0.1000E-12.
  No threshold value for occupation numbers given. Defaulting to  0.0000E+00.
  No accuracy for fermi level given. Defaulting to  0.1000E-19.
  Maximum # of iterations to find E_F not set. Defaulting to  200.
  Preferred method for the eigenvalue solver ('KS_method') not specified in 'control.in'.
  Defaulting to serial version LAPACK (via ELSI).
  Will not use alltoall communication since running on < 1024 CPUs.
  Output of Kohn-Sham eigenvector components into separate files was explicitly requested.
  | Periodic system: Eigenvector output will happen at the very end of the run, for
  | those bands whose output was requested.
  Threshold for basis singularities not set.
  Default threshold for basis singularities:  0.1000E-04
  partition_type (choice of integration weights) for integrals was not specified.
  | Using a version of the partition function of Stratmann and coworkers ('stratmann_sparse').
  | At each grid point, the set of atoms used to build the partition table is smoothly restricted to
  | only those atoms whose free-atom density would be non-zero at that grid point.
  Partitioning for Hartree potential was not defined. Using partition_type for integrals.
  | Adjusted default value of keyword multip_moments_threshold to:       0.10000000E-11
  | This value may affect high angular momentum components of the Hartree potential in periodic systems.
  Angular momentum expansion for Kerker preconditioner not set explicitly.
  | Using default value of   0
  No explicit requirement for turning off preconditioner.
  | By default, it will be turned off when the charge convergence reaches
  | sc_accuracy_rho  =   0.100000E-03
  | sc_accuracy_eev  =   0.100000E-01
  | sc_accuracy_etot =   0.100000E-05
  No special mixing parameter while Kerker preconditioner is on.
  Using default: charge_mix_param =     0.0500.
  No q(lm)/r^(l+1) cutoff set for long-range Hartree potential.
  | Using default value of  0.100000E-09 .
  | Verify using the multipole_threshold keyword.
  Defaulting to new monopole extrapolation.
  Density update method: automatic selection selected.
  Using density matrix based charge density update.
  Using density matrix based charge density update.
  Using packed matrix style: index .
  Defaulting to use time-reversal symmetry for k-point grid.
  Charge integration errors on the 3D integration grid will be compensated
  by explicit normalization and distribution of residual charges.
  Use the "compensate_multipole_errors" flag to change this behaviour.
  * Volumetric cube output requested. Tightening default wave_threshold to 1d-8
  Set 'collect_eigenvectors' to be '.true.' for all serial calculations. This is mandatory.
  Set 'collect_eigenvectors' to be '.true.' for KS_method lapack_fast and serial.
 
  Consistency checks for the contents of geometry.in are next.
 

  Range separation radius for Ewald summation (hartree_convergence_parameter):      5.00000000 bohr.
  Number of empty states per atom not set in control.in - providing a guess from actual geometry.
  | Total number of empty states used during s.c.f. cycle:      102
  If you use a very high smearing, use empty_states (per atom!) in control.in to increase this value.
  * Since a DOS, bandstructure or SOC calculation was requested, the number of empty states requested was INCREASED.
  | Number of empty states (old):  204.00000
  | Number of empty states (new):  214.00000

  Structure-dependent array size parameters: 
  | Maximum number of distinct radial functions  :       29
  | Maximum number of basis functions            :      460
  | Number of Kohn-Sham states (occupied + empty):      207
------------------------------------------------------------
  After read_input_data [GB]:    111.26

  Performing system and environment tests:
  | Environment variable OMP_NUM_THREADS correctly set to 1.
  | Checking for ScaLAPACK...
  | Testing pdtran()...
  | All pdtran() tests passed.
  After prepare_system [GB]:    111.26

------------------------------------------------------------
          Preparing all fixed parts of the calculation.
------------------------------------------------------------
  Determining machine precision:
    2.225073858507201E-308
  Setting up grids for atomic and cluster calculations.

  Creating wave function, potential, and density for free atoms.
  Runtime choices for atomic solver:
  | atomic solver xc        : PBE
  | compute density gradient: 1
  | compute kinetic density : F

  Species: H

  List of occupied orbitals and eigenvalues:
    n    l              occ      energy [Ha]    energy [eV]
    1    0           1.0000        -0.237593        -6.4652


  Species: C

  List of occupied orbitals and eigenvalues:
    n    l              occ      energy [Ha]    energy [eV]
    1    0           2.0000       -10.046810      -273.3876
    2    0           2.0000        -0.503128       -13.6908
    2    1           2.0000        -0.191849        -5.2205


  Species: O

  List of occupied orbitals and eigenvalues:
    n    l              occ      energy [Ha]    energy [eV]
    1    0           2.0000       -18.926989      -515.0296
    2    0           2.0000        -0.880247       -23.9527
    2    1           4.0000        -0.331514        -9.0210


  Species: Ag

  List of occupied orbitals and eigenvalues:
    n    l              occ      energy [Ha]    energy [eV]
    1    0           2.0000      -958.376532    -26078.7523
    2    0           2.0000      -137.767969     -3748.8572
    3    0           2.0000       -25.141857      -684.1447
    4    0           2.0000        -3.485255       -94.8386
    5    0           1.0000        -0.153893        -4.1876
    2    1           6.0000      -123.525516     -3361.3003
    3    1           6.0000       -20.493405      -557.6539
    4    1           6.0000        -2.144152       -58.3453
    3    2          10.0000       -13.176580      -358.5530
    4    2          10.0000        -0.266890        -7.2624


  Adding cutoff potential to free-atom effective potential.
  Creating fixed part of basis set: Ionic, confined, hydrogenic.
 
  H                    hydrogenic:
 
  List of hydrogenic basis orbitals: 
    n    l      effective z      eigenvalue [eV]  inner max. [A]     outer max. [A]     outer radius [A]   
    2    0         2.100000       -14.9728           0.193243           1.317208           4.696947
    2    1         3.500000       -41.6669           0.602369           0.602369           3.862494
 
 
  C                    hydrogenic:
 
  List of hydrogenic basis orbitals: 
    n    l      effective z      eigenvalue [eV]  inner max. [A]     outer max. [A]     outer radius [A]   
    2    1         1.700000        -9.7616           1.230570           1.230570           4.721969
    3    2         6.000000       -54.4224           0.792453           0.792453           4.028125
    2    0         4.900000       -81.6679           0.082559           0.562749           3.232486
 
 
  O                    hydrogenic:
 
  List of hydrogenic basis orbitals: 
    n    l      effective z      eigenvalue [eV]  inner max. [A]     outer max. [A]     outer radius [A]   
    2    1         1.800000       -10.9749           1.164242           1.164242           4.691341
    3    2         7.600000       -87.3180           0.624125           0.624125           3.413946
    3    0         6.400000       -61.9207           0.061167           1.081902           4.151495
 
 
  Ag                   ion:

  List of free ionic orbitals and eigenvalues:
    n    l      energy [Ha]    energy [eV]
    1    0      -959.242502    -26102.3166
    2    0      -138.615368     -3771.9161
    3    0       -25.985886      -707.1119
    4    0        -4.320835      -117.5759
    2    1      -124.372537     -3384.3489
    3    1       -21.337322      -580.6181
    4    1        -2.974632       -80.9438
    3    2       -14.020465      -381.5163
    4    2        -1.061785       -28.8926


  List of ionic basis orbitals and eigenvalues:
    n    l      energy [Ha]    energy [eV]    outer radius [A]
    5    1        -0.525828       -14.3085       4.700341

 
  Ag                   hydrogenic:
 
  List of hydrogenic basis orbitals: 
    n    l      effective z      eigenvalue [eV]  inner max. [A]     outer max. [A]     outer radius [A]   
    4    3         7.600000       -49.1160           1.110807           1.110807           4.586811
    3    0         2.600000        -9.1732           0.149597           2.489137           4.758155
    4    2         8.400000       -60.0006           0.428073           1.334373           4.531079
 
  Creating atomic-like basis functions for current effective potential.

  Species H                   :

  List of atomic basis orbitals and eigenvalues:
    n    l      energy [Ha]    energy [eV]    outer radius [A]
    1    0        -0.237593        -6.4652       4.696947


  Species C                   :

  List of atomic basis orbitals and eigenvalues:
    n    l      energy [Ha]    energy [eV]    outer radius [A]
    1    0       -10.046810      -273.3876       2.470206
    2    0        -0.503128       -13.6908       4.664595
    2    1        -0.191849        -5.2205       4.664595


  Species O                   :

  List of atomic basis orbitals and eigenvalues:
    n    l      energy [Ha]    energy [eV]    outer radius [A]
    1    0       -18.926989      -515.0296       1.807907
    2    0        -0.880247       -23.9527       4.578029
    2    1        -0.331514        -9.0210       4.634338


  Species Ag                  :

  List of atomic basis orbitals and eigenvalues:
    n    l      energy [Ha]    energy [eV]    outer radius [A]
    1    0      -958.376532    -26078.7523       0.275667
    2    0      -137.767969     -3748.8572       0.742051
    3    0       -25.141857      -684.1447       1.724930
    4    0        -3.485255       -94.8386       4.159460
    5    0        -0.153893        -4.1876       4.700341
    2    1      -123.525516     -3361.3003       0.769771
    3    1       -20.493405      -557.6539       1.856209
    4    1        -2.144152       -58.3453       4.367912
    3    2       -13.176580      -358.5530       2.202705
    4    2        -0.266890        -7.2624       4.643229

  Assembling full basis from fixed parts.
  | Species H :   atomic orbital   1 s accepted.
  | Species H :    hydro orbital   2 s accepted.
  | Species H :    hydro orbital   2 p accepted.
  | Species C :   atomic orbital   1 s accepted.
  | Species C :    hydro orbital   2 s accepted.
  | Species C :   atomic orbital   2 s accepted.
  | Species C :   atomic orbital   2 p accepted.
  | Species C :    hydro orbital   2 p accepted.
  | Species C :    hydro orbital   3 d accepted.
  | Species O :   atomic orbital   1 s accepted.
  | Species O :    hydro orbital   3 s accepted.
  | Species O :   atomic orbital   2 s accepted.
  | Species O :   atomic orbital   2 p accepted.
  | Species O :    hydro orbital   2 p accepted.
  | Species O :    hydro orbital   3 d accepted.
  | Species Ag :   atomic orbital   1 s accepted.
  | Species Ag :   atomic orbital   2 s accepted.
  | Species Ag :   atomic orbital   3 s accepted.
  | Species Ag :   atomic orbital   4 s accepted.
  | Species Ag :   atomic orbital   5 s accepted.
  | Species Ag :    hydro orbital   3 s accepted.
  | Species Ag :   atomic orbital   2 p accepted.
  | Species Ag :   atomic orbital   3 p accepted.
  | Species Ag :   atomic orbital   4 p accepted.
  | Species Ag :    ionic orbital   5 p accepted.
  | Species Ag :   atomic orbital   3 d accepted.
  | Species Ag :    hydro orbital   4 d accepted.
  | Species Ag :   atomic orbital   4 d accepted.
  | Species Ag :    hydro orbital   4 f accepted.
 
  Basis size parameters after reduction:
  | Total number of radial functions:       29
  | Total number of basis functions :      460
 
  Per-task memory consumption for arrays in subroutine allocate_ext:
  |          10.751136MB.
  Testing on-site integration grid accuracy.
  |  Species  Function  <phi|h_atom|phi> (log., in eV)  <phi|h_atom|phi> (rad., in eV)
           1        1                 -6.4664147733                 -6.4652229287
           1        2                 13.7099062243                 13.7158503352
           1        3                 25.2661739479                 25.2663166526
           2        4               -273.3876219248               -273.3875919908
           2        5                -10.7204647119                -10.7200987605
           2        6                 17.5782951162                 17.5752355731
           2        7                 -5.2222267983                 -5.2237454471
           2        8                  8.6866956284                  8.6634852736
           2        9                 27.4984676161                 27.4985577266
           3       10               -515.0295626295               -515.0294562738
           3       11                 15.1698434419                 15.1699322204
           3       12                -21.6038822678                -21.6039118105
           3       13                 -9.0211123393                 -9.0212703513
           3       14                  8.3047696391                  8.2854840999
           3       15                 45.8428042125                 45.8427461222
           4       16             -26078.7522962004             -26078.7050038282 ***
           4       17              -3748.8571825891              -3748.8564638138
           4       18               -684.1447429952               -684.1447145505
           4       19                -94.8386020389                -94.8385997776
           4       20                 -4.2026518779                 -4.2150124605
           4       21                  6.5883049883                  6.4593378836 ***
           4       22              -3361.3003164451              -3361.3003151577
           4       23               -557.6539219411               -557.6539191551
           4       24                -58.3453484083                -58.3453474066
           4       25                  1.2032632121                  1.1972375912
           4       26               -358.5529845261               -358.5529835865
           4       27                 17.9428490881                 17.9429259916
           4       28                 -6.0696970103                 -6.0698655744
           4       29                 24.3026730906                 24.3026930796
 * Note: Onsite integrals marked "***" above are less accurate than
 * onsite_accuracy_threshold =    0.03000 eV. Usually, this is harmless.
 * However, one integral did have a negative value. This integral could be important.
 * When in doubt, tighten the "radial" and/or "radial_multiplier" flags to check.

  Preparing densities etc. for the partition functions (integrals / Hartree potential).

  Preparations completed.
  max(cpu_time)          :      0.354 s.
  Wall clock time (cpu1) :      0.409 s.
------------------------------------------------------------
  After prepare_scf [GB]:    111.22

  Initializing index lists of integration centers etc. from given atomic structure:
  Mapping all atomic coordinates to central unit cell.

  Initializing the k-points
  Using symmetry for reducing the k-points
  | k-points reduced from:        1 to        1
  | Number of k-points                             :         1
  The eigenvectors in the calculations are COMPLEX.
  | K-points in task   0:         1
  | Number of basis functions in the Hamiltonian integrals :      1520
  | Number of basis functions in a single unit cell        :       460
  | Number of centers in hartree potential         :       152
  | Number of centers in hartree multipole         :       152
  | Number of centers in electron density summation:       152
  | Number of centers in basis integrals           :       152
  | Number of centers in integrals                 :       136
  | Number of centers in hamiltonian               :       152
  | Consuming          0 KiB for k_phase.
  | Number of super-cells (origin) [n_cells]                     :         125
  | Number of super-cells (after PM_index) [n_cells]             :          10
  | Number of super-cells in hamiltonian [n_cells_in_hamiltonian]:          10
  | Size of matrix packed + index [n_hamiltonian_matrix_size] :       91959
  After initialize_bc_dependent_lists [GB]:    111.21

------------------------------------------------------------
          Begin self-consistency loop: Initialization.

          Date     :  20240103, Time     :  225857.058
------------------------------------------------------------
  Available memory per node after initialize_hartree_non_periodic_ewald [GB]:    111.21
  | Estimated reciprocal-space cutoff momentum G_max:         1.84432723 bohr^-1 .
  | Reciprocal lattice points for long-range Hartree potential:   19308
  Available memory per node after initialize_recip_hartree_potential [GB]:    111.21
  Available memory per node after initialize_scalapack [GB]:    111.21
  Available memory per node after aims_elsi_init_scf [GB]:    111.21
  Available memory per node after initialize_fixed_grids [GB]:    111.21
  Partitioning the integration grid into batches with parallel hashing+maxmin method.
  | Number of batches:     2119
  | Maximal batch size:     196
  | Minimal batch size:      54
  | Average batch size:     101.335
  | Standard deviation of batch sizes:      27.972

  Integration load balanced across     1 MPI tasks.
  Work distribution over tasks is as follows:
  Task     0 has     214728 integration points.
  Available memory per node after partition_grid [GB]:    111.15
  Initializing partition tables, free-atom densities, potentials, etc. across the integration grid (initialize_grid_storage).
  | initialize_grid_storage: Actual outermost partition radius vs. multipole_radius_free
  | (-- VB: in principle, multipole_radius_free should be larger, hence this output)
  | Species        1: Confinement radius =              4.999999999999999 AA, multipole_radius_free =              5.054417573612229 AA.
  | Species        1: outer_partition_radius set to              5.054417573612229 AA .
  | Species        2: Confinement radius =              4.999999999999999 AA, multipole_radius_free =              5.019602836301480 AA.
  | Species        2: outer_partition_radius set to              5.019602836301480 AA .
  | Species        3: Confinement radius =              4.999999999999999 AA, multipole_radius_free =              5.048384829883283 AA.
  | Species        3: outer_partition_radius set to              5.048384829883283 AA .
  | Species        4: Confinement radius =              4.999999999999999 AA, multipole_radius_free =              5.058069901110960 AA.
  | Species        4: outer_partition_radius set to              5.058069901110960 AA .
  | The sparse table of interatomic distances needs         65.32 kbyte instead of       184.83 kbyte of memory.
  | Net number of integration points:   214728
  | of which are non-zero points    :   184011
  | Numerical average free-atom electrostatic potential    :     -0.13958998 eV
  Available memory per node after initialize_grid_storage_p1 [GB]:    111.18
  Renormalizing the initial density to the exact electron count on the 3D integration grid.
  | Initial density: Formal number of electrons (from input files) :     200.0000000000
  | Integrated number of electrons on 3D grid     :     200.0010474366
  | Charge integration error                      :       0.0010474366
  | Normalization factor for density and gradient :       0.9999947628
  Renormalizing the free-atom superposition density to the exact electron count on the 3D integration grid.
  | Formal number of electrons (from input files) :     200.0000000000
  | Integrated number of electrons on 3D grid     :     200.0010474366
  | Charge integration error                      :       0.0010474366
  | Normalization factor for density and gradient :       0.9999947628
  Obtaining max. number of non-zero basis functions in each batch (get_n_compute_maxes).
  | Maximal number of non-zero basis functions:      320 in task     0
  Available memory per node after get_n_compute_maxes_p1 [GB]:    111.20
  Allocating        1.453 MB for KS_eigenvector_complex
  Available memory per node after allocate_matrices [GB]:    111.20
  Available memory per node after init_comm_sparse_local_matrix_scalapack [GB]:    111.20
  Integrating Hamiltonian matrix: batch-based integration.
  Time summed over all CPUs for integration: real work        3.088 s, elapsed        3.088 s
  Available memory per node after integrate hamiltonian matrix [GB]:    111.13
  Integrating overlap matrix.
  Time summed over all CPUs for integration: real work        1.738 s, elapsed        1.738 s
  Available memory per node after integrate ovlp matrix [GB]:    112.26
  Available memory per node after ASI_callbacks invoke [GB]:    112.26
  Decreasing sparse matrix size:
  | Tolerance:  0.1000E-12
  Hamiltonian matrix
  | Array has    52437 nonzero elements out of    91959 elements
  | Sparsity factor is 0.430
  Overlap matrix
  | Array has    51701 nonzero elements out of    91959 elements
  | Sparsity factor is 0.438
  New size of hamiltonian matrix:       53670
  Available memory per node after save_overlap_scalapack [GB]:    112.26

  Updating Kohn-Sham eigenvalues and eigenvectors using ELSI and the (modified) LAPACK eigensolver.
  Singularity check in k-point 1, task 0 (analysis for other k-points/tasks may follow below):
  Overlap matrix is not singular
  | Lowest and highest eigenvalues :  0.7515E-03,  0.7130E+01
  Finished singularity check of overlap matrix
  | Time :     0.047 s
  Starting LAPACK eigensolver
  Finished Cholesky decomposition
  | Time :     0.008 s
  Finished transformation to standard eigenproblem
  | Time :     0.016 s
  Finished solving standard eigenproblem
  | Time :     0.049 s
  Finished back-transformation of eigenvectors
  | Time :     0.003 s

  Obtaining occupation numbers and electronic chemical potential using ELSI.
  | Note that, for insulating systems, the printed 'chemical potential' value is not uniquely defined.
  | It can be anywhere in the energy gap, as long as it correctly separates occupied and unoccupied states.
  | In systems with a gap, the physically relevant chemical potential is the VBM or HOMO.

  | Chemical potential (Fermi level):    -8.50926615 eV
  Available memory per node after advance_KS_solution [GB]:    112.39
  Writing Kohn-Sham eigenvalues.

  State    Occupation    Eigenvalue [Ha]    Eigenvalue [eV]
      1       2.00000         -19.012839         -517.36567
      2       2.00000         -19.012812         -517.36494
      3       2.00000         -19.011587         -517.33160
      4       2.00000         -19.011539         -517.33031
      5       2.00000         -19.002229         -517.07697
      6       2.00000         -19.002221         -517.07675
      7       2.00000         -10.167272         -276.66556
      8       2.00000         -10.167021         -276.65871
      9       2.00000         -10.166789         -276.65240
     10       2.00000         -10.166742         -276.65113
     11       2.00000         -10.166709         -276.65022
     12       2.00000         -10.166581         -276.64675
     13       2.00000         -10.165540         -276.61842
     14       2.00000         -10.165287         -276.61153
     15       2.00000         -10.159168         -276.44502
     16       2.00000         -10.159159         -276.44479
     17       2.00000         -10.155918         -276.35658
     18       2.00000         -10.155900         -276.35610
     19       2.00000         -10.155184         -276.33661
     20       2.00000         -10.154982         -276.33113
     21       2.00000         -10.154963         -276.33061
     22       2.00000         -10.154865         -276.32795
     23       2.00000         -10.154831         -276.32701
     24       2.00000         -10.154583         -276.32027
     25       2.00000         -10.154289         -276.31226
     26       2.00000         -10.154203         -276.30992
     27       2.00000         -10.134701         -275.77924
     28       2.00000         -10.134685         -275.77881
     29       2.00000         -10.134060         -275.76179
     30       2.00000         -10.133975         -275.75950
     31       2.00000          -1.171093          -31.86705
     32       2.00000          -1.171080          -31.86671
     33       2.00000          -1.150186          -31.29816
     34       2.00000          -1.150146          -31.29706
     35       2.00000          -1.066782          -29.02863
     36       2.00000          -1.066769          -29.02826
     37       2.00000          -1.009560          -27.47152
     38       2.00000          -0.990723          -26.95894
     39       2.00000          -0.962981          -26.20406
     40       2.00000          -0.947587          -25.78514
     41       2.00000          -0.931472          -25.34665
     42       2.00000          -0.881754          -23.99374
     43       2.00000          -0.880734          -23.96600
     44       2.00000          -0.880302          -23.95425
     45       2.00000          -0.869003          -23.64677
     46       2.00000          -0.835767          -22.74237
     47       2.00000          -0.788889          -21.46677
     48       2.00000          -0.775824          -21.11125
     49       2.00000          -0.768707          -20.91759
     50       2.00000          -0.758120          -20.62949
     51       2.00000          -0.735444          -20.01245
     52       2.00000          -0.719069          -19.56688
     53       2.00000          -0.716533          -19.49785
     54       2.00000          -0.712964          -19.40073
     55       2.00000          -0.681573          -18.54654
     56       2.00000          -0.663522          -18.05534
     57       2.00000          -0.659862          -17.95575
     58       2.00000          -0.653624          -17.78601
     59       2.00000          -0.644774          -17.54520
     60       2.00000          -0.644109          -17.52708
     61       2.00000          -0.625581          -17.02293
     62       2.00000          -0.604831          -16.45828
     63       2.00000          -0.604290          -16.44356
     64       2.00000          -0.596385          -16.22845
     65       2.00000          -0.588616          -16.01706
     66       2.00000          -0.575300          -15.65470
     67       2.00000          -0.573986          -15.61895
     68       2.00000          -0.571609          -15.55427
     69       2.00000          -0.563207          -15.32564
     70       2.00000          -0.553710          -15.06723
     71       2.00000          -0.550411          -14.97744
     72       2.00000          -0.548978          -14.93845
     73       2.00000          -0.545705          -14.84940
     74       2.00000          -0.543040          -14.77686
     75       2.00000          -0.535674          -14.57643
     76       2.00000          -0.532681          -14.49498
     77       2.00000          -0.528816          -14.38982
     78       2.00000          -0.521376          -14.18736
     79       2.00000          -0.504993          -13.74156
     80       2.00000          -0.502602          -13.67648
     81       2.00000          -0.501904          -13.65749
     82       2.00000          -0.501361          -13.64272
     83       2.00000          -0.495373          -13.47979
     84       2.00000          -0.478887          -13.03119
     85       2.00000          -0.473422          -12.88248
     86       2.00000          -0.472411          -12.85496
     87       2.00000          -0.472347          -12.85321
     88       2.00000          -0.449810          -12.23996
     89       2.00000          -0.441785          -12.02159
     90       2.00000          -0.419655          -11.41941
     91       2.00000          -0.418645          -11.39192
     92       2.00000          -0.414249          -11.27228
     93       2.00000          -0.414221          -11.27153
     94       2.00000          -0.397506          -10.81669
     95       2.00000          -0.397434          -10.81474
     96       2.00000          -0.393847          -10.71713
     97       2.00000          -0.392598          -10.68313
     98       2.00000          -0.391316          -10.64824
     99       2.00000          -0.387826          -10.55328
    100       2.00000          -0.340501           -9.26551
    101       0.00000          -0.278255           -7.57171
    102       0.00000          -0.224866           -6.11891
    103       0.00000          -0.224260           -6.10243
    104       0.00000          -0.213390           -5.80664
    105       0.00000          -0.199577           -5.43078
    106       0.00000          -0.180309           -4.90646
    107       0.00000          -0.166406           -4.52813
    108       0.00000          -0.131894           -3.58901
    109       0.00000          -0.116719           -3.17609
    110       0.00000          -0.093090           -2.53311
    111       0.00000          -0.071249           -1.93878
    112       0.00000          -0.062717           -1.70661
    113       0.00000          -0.053491           -1.45556
    114       0.00000          -0.040180           -1.09335
    115       0.00000          -0.032090           -0.87322
    116       0.00000          -0.025808           -0.70228
    117       0.00000          -0.005416           -0.14738
    118       0.00000          -0.003288           -0.08947
    119       0.00000          -0.001263           -0.03437
    120       0.00000           0.000577            0.01571
    121       0.00000           0.006036            0.16423
    122       0.00000           0.015962            0.43434
    123       0.00000           0.017109            0.46555
    124       0.00000           0.026948            0.73329
    125       0.00000           0.034855            0.94845
    126       0.00000           0.035616            0.96915
    127       0.00000           0.036819            1.00189
    128       0.00000           0.037003            1.00690
    129       0.00000           0.048191            1.31133
    130       0.00000           0.056293            1.53182
    131       0.00000           0.071405            1.94303
    132       0.00000           0.078020            2.12304
    133       0.00000           0.083729            2.27839
    134       0.00000           0.090056            2.45053
    135       0.00000           0.103068            2.80462
    136       0.00000           0.104910            2.85474
    137       0.00000           0.123511            3.36090
    138       0.00000           0.124975            3.40076
    139       0.00000           0.140846            3.83261
    140       0.00000           0.145794            3.96724
    141       0.00000           0.146818            3.99511
    142       0.00000           0.152958            4.16220
    143       0.00000           0.155609            4.23435
    144       0.00000           0.157256            4.27915
    145       0.00000           0.165942            4.51551
    146       0.00000           0.173919            4.73257
    147       0.00000           0.175203            4.76752
    148       0.00000           0.181925            4.95043
    149       0.00000           0.183108            4.98262
    150       0.00000           0.187787            5.10994
    151       0.00000           0.189073            5.14493
    152       0.00000           0.190434            5.18196
    153       0.00000           0.196086            5.33577
    154       0.00000           0.199516            5.42911
    155       0.00000           0.206575            5.62120
    156       0.00000           0.207085            5.63507
    157       0.00000           0.209692            5.70602
    158       0.00000           0.210351            5.72395
    159       0.00000           0.211371            5.75170
    160       0.00000           0.213708            5.81530
    161       0.00000           0.238698            6.49532
    162       0.00000           0.239432            6.51527
    163       0.00000           0.240723            6.55041
    164       0.00000           0.244432            6.65132
    165       0.00000           0.248892            6.77270
    166       0.00000           0.249504            6.78936
    167       0.00000           0.264122            7.18712
    168       0.00000           0.266493            7.25163
    169       0.00000           0.266917            7.26317
    170       0.00000           0.269169            7.32446
    171       0.00000           0.272392            7.41216
    172       0.00000           0.284791            7.74957
    173       0.00000           0.285046            7.75649
    174       0.00000           0.290407            7.90237
    175       0.00000           0.293425            7.98451
    176       0.00000           0.295790            8.04887
    177       0.00000           0.301144            8.19455
    178       0.00000           0.302945            8.24355
    179       0.00000           0.314087            8.54675
    180       0.00000           0.318064            8.65497
    181       0.00000           0.327311            8.90657
    182       0.00000           0.328736            8.94537
    183       0.00000           0.331218            9.01291
    184       0.00000           0.333530            9.07582
    185       0.00000           0.344478            9.37372
    186       0.00000           0.349134            9.50043
    187       0.00000           0.352407            9.58948
    188       0.00000           0.357928            9.73972
    189       0.00000           0.371274           10.10289
    190       0.00000           0.381776           10.38864
    191       0.00000           0.395887           10.77263
    192       0.00000           0.404718           11.01295
    193       0.00000           0.414243           11.27211
    194       0.00000           0.420665           11.44689
    195       0.00000           0.444951           12.10774
    196       0.00000           0.452454           12.31190
    197       0.00000           0.452894           12.32386
    198       0.00000           0.454187           12.35906
    199       0.00000           0.454249           12.36074
    200       0.00000           0.457044           12.43681
    201       0.00000           0.465446           12.66544
    202       0.00000           0.473683           12.88957
    203       0.00000           0.504004           13.71464
    204       0.00000           0.507986           13.82301
    205       0.00000           0.516146           14.04504
    206       0.00000           0.519836           14.14547
    207       0.00000           0.526888           14.33735

  Highest occupied state (VBM) at     -9.26551129 eV (relative to internal zero)
  | Occupation number:      2.00000000
  | K-point:       1 at    0.000000    0.000000    0.000000 (in units of recip. lattice)

  Lowest unoccupied state (CBM) at    -7.57170870 eV (relative to internal zero)
  | Occupation number:      0.00000000
  | K-point:       1 at    0.000000    0.000000    0.000000 (in units of recip. lattice)

  ESTIMATED overall HOMO-LUMO gap:      1.69380259 eV between HOMO at k-point 1 and LUMO at k-point 1
  The gap value is above 0.2 eV. Unless you are using a very sparse k-point grid,
  this system is most likely an insulator or a semiconductor.
  Calculating total energy contributions from superposition of free atom densities.

  Total energy components:
  | Sum of eigenvalues            :        -807.01295886 Ha      -21959.93992014 eV
  | XC energy correction          :        -181.12247880 Ha       -4928.59341222 eV
  | XC potential correction       :         232.72628703 Ha        6332.80447963 eV
  | Free-atom electrostatic energy:        -616.24658461 Ha      -16768.92276071 eV
  | Hartree energy correction     :           0.00000000 Ha           0.00000000 eV
  | Entropy correction            :           0.00000000 Ha           0.00000000 eV
  | ---------------------------
  | Total energy                  :       -1371.65573525 Ha      -37324.65161344 eV
  | Total energy, T -> 0          :       -1371.65573525 Ha      -37324.65161344 eV  <-- do not rely on this value for anything but (periodic) metals
  | Electronic free energy        :       -1371.65573525 Ha      -37324.65161344 eV

  Derived energy quantities:
  | Kinetic energy                :        1364.08113209 Ha       37118.53617458 eV
  | Electrostatic energy          :       -2554.61438854 Ha      -69514.59437580 eV
  | Energy correction for multipole
  | error in Hartree potential    :           0.00000000 Ha           0.00000000 eV
  | Sum of eigenvalues per atom                           :        -577.89315579 eV
  | Total energy (T->0) per atom                          :        -982.22767404 eV  <-- do not rely on this value for anything but (periodic) metals
  | Electronic free energy per atom                       :        -982.22767404 eV
  Initialize hartree_potential_storage
  Max. number of atoms included in rho_multipole:           38

  End scf initialization - timings             :  max(cpu_time)    wall_clock(cpu1)
  | Time for scf. initialization                :        8.897 s           8.975 s
  | Boundary condition initialization           :        0.171 s           0.199 s
  | Integration                                 :        4.825 s           4.840 s
  | Solution of K.-S. eqns.                     :        0.132 s           0.139 s
  | Grid partitioning                           :        0.979 s           0.984 s
  | Preloading free-atom quantities on grid     :        2.393 s           2.415 s
  | Free-atom superposition energy              :        0.537 s           0.538 s
  | Total energy evaluation                     :        0.001 s           0.004 s

  Partial memory accounting:
  | Current value for overall tracked memory usage:
  |   Minimum:        2.515 MB (on task 0)
  |   Maximum:        2.515 MB (on task 0)
  |   Average:        2.515 MB
  | Peak value for overall tracked memory usage:
  |   Minimum:       15.440 MB (on task 0 after allocating eval_tmp)
  |   Maximum:       15.440 MB (on task 0 after allocating eval_tmp)
  |   Average:       15.440 MB
  | Largest tracked array allocation so far:
  |   Minimum:        4.915 MB (all_coords on task 0)
  |   Maximum:        4.915 MB (all_coords on task 0)
  |   Average:        4.915 MB
  Note:  These values currently only include a subset of arrays which are explicitly tracked.
  The "true" memory usage will be greater.
------------------------------------------------------------
  Available memory after initialize_scf [GB]:    114.09
  Available memory after allocating mixing [GB]:    114.07
  Evaluating new KS density using the density matrix
  Evaluating density matrix
  Time summed over all CPUs for getting density from density matrix: real work        3.765 s, elapsed        3.765 s
  Integration grid: deviation in total charge (<rho> - N_e) =  -2.273737E-13

  Time for density update prior                :  max(cpu_time)    wall_clock(cpu1)
  | self-consistency iterative process          :        3.804 s           3.815 s
  Available memory before start of SCF loop [GB]:    114.05

------------------------------------------------------------
          Begin self-consistency iteration #    1

  Date     :  20240103, Time     :  225909.857
------------------------------------------------------------
  Pulay mixing of updated and previous charge densities.
  Available memory per node after mixing [GB]:    114.03
  Renormalizing the density to the exact electron count on the 3D integration grid.
  | Formal number of electrons (from input files) :     200.0000000000
  | Integrated number of electrons on 3D grid     :     199.9953206371
  | Charge integration error                      :      -0.0046793629
  | Normalization factor for density and gradient :       1.0000233974

  Evaluating partitioned Hartree potential by multipole expansion.
  | Original multipole sum: apparent total charge =  -0.133646E-11
  | Sum of charges compensated after spline to logarithmic grids =   0.125748E-03
  | Analytical far-field extrapolation by fixed multipoles:
  | Hartree multipole sum: apparent total charge =  -0.133649E-11
  Summing up the Hartree potential.
  Time summed over all CPUs for potential: real work        2.798 s, elapsed        2.798 s
  | RMS charge density error from multipole expansion :   0.329718E-02
  | Average real-space part of the electrostatic potential :      0.00032835 eV

  Integrating Hamiltonian matrix: batch-based integration.
  Time summed over all CPUs for integration: real work        3.024 s, elapsed        3.024 s

  Updating Kohn-Sham eigenvalues and eigenvectors using ELSI and the (modified) LAPACK eigensolver.
  Starting LAPACK eigensolver
  Finished Cholesky decomposition
  | Time :     0.008 s
  Finished transformation to standard eigenproblem
  | Time :     0.014 s
  Finished solving standard eigenproblem
  | Time :     0.047 s
  Finished back-transformation of eigenvectors
  | Time :     0.004 s

  Obtaining occupation numbers and electronic chemical potential using ELSI.
  | Note that, for insulating systems, the printed 'chemical potential' value is not uniquely defined.
  | It can be anywhere in the energy gap, as long as it correctly separates occupied and unoccupied states.
[...]
    125       0.00000           0.125301            3.40961
    126       0.00000           0.133825            3.64158
    127       0.00000           0.142668            3.88220
    128       0.00000           0.144540            3.93312
    129       0.00000           0.146946            3.99860
    130       0.00000           0.154060            4.19220
    131       0.00000           0.157487            4.28544
    132       0.00000           0.171351            4.66270
    133       0.00000           0.176014            4.78958
    134       0.00000           0.182625            4.96948
    135       0.00000           0.184343            5.01624
    136       0.00000           0.206823            5.62794
    137       0.00000           0.208344            5.66932
    138       0.00000           0.213374            5.80619
    139       0.00000           0.215282            5.85813
    140       0.00000           0.222697            6.05991
    141       0.00000           0.228206            6.20980
    142       0.00000           0.230111            6.26164
    143       0.00000           0.232597            6.32929
    144       0.00000           0.235026            6.39537
    145       0.00000           0.247373            6.73136
    146       0.00000           0.247735            6.74121
    147       0.00000           0.253255            6.89141
    148       0.00000           0.256222            6.97215
    149       0.00000           0.256610            6.98272
    150       0.00000           0.258966            7.04682
    151       0.00000           0.262192            7.13461
    152       0.00000           0.263617            7.17339
    153       0.00000           0.267552            7.28047
    154       0.00000           0.272061            7.40315
    155       0.00000           0.273400            7.43958
    156       0.00000           0.281718            7.66593
    157       0.00000           0.294509            8.01399
    158       0.00000           0.304816            8.29446
    159       0.00000           0.308140            8.38491
    160       0.00000           0.308546            8.39597
    161       0.00000           0.311024            8.46339
    162       0.00000           0.316755            8.61935
    163       0.00000           0.324412            8.82771
    164       0.00000           0.328610            8.94194
    165       0.00000           0.328970            8.95172
    166       0.00000           0.340030            9.25268
    167       0.00000           0.350874            9.54776
    168       0.00000           0.353218            9.61155
    169       0.00000           0.356146            9.69123
    170       0.00000           0.358852            9.76486
    171       0.00000           0.360597            9.81235
    172       0.00000           0.366781            9.98063
    173       0.00000           0.367803           10.00842
    174       0.00000           0.381903           10.39210
    175       0.00000           0.384786           10.47055
    176       0.00000           0.390621           10.62935
    177       0.00000           0.395230           10.75476
    178       0.00000           0.396617           10.79251
    179       0.00000           0.404405           11.00443
    180       0.00000           0.420603           11.44518
    181       0.00000           0.427276           11.62677
    182       0.00000           0.427356           11.62894
    183       0.00000           0.435028           11.83771
    184       0.00000           0.441233           12.00657
    185       0.00000           0.447343           12.17282
    186       0.00000           0.449272           12.22533
    187       0.00000           0.449550           12.23289
    188       0.00000           0.454316           12.36257
    189       0.00000           0.463335           12.60799
    190       0.00000           0.485175           13.20227
    191       0.00000           0.486337           13.23391
    192       0.00000           0.490620           13.35045
    193       0.00000           0.491891           13.38503
    194       0.00000           0.534344           14.54024
    195       0.00000           0.537915           14.63741
    196       0.00000           0.538657           14.65759
    197       0.00000           0.540924           14.71928
    198       0.00000           0.543306           14.78410
    199       0.00000           0.567444           15.44094
    200       0.00000           0.574988           15.64622
    201       0.00000           0.580684           15.80123
    202       0.00000           0.589643           16.04499
    203       0.00000           0.599196           16.30496
    204       0.00000           0.600265           16.33405
    205       0.00000           0.604646           16.45324
    206       0.00000           0.607110           16.52031
    207       0.00000           0.645055           17.55284

  Highest occupied state (VBM) at     -6.32566841 eV (relative to internal zero)
  | Occupation number:      2.00000000
  | K-point:       1 at    0.000000    0.000000    0.000000 (in units of recip. lattice)

  Lowest unoccupied state (CBM) at    -4.76713511 eV (relative to internal zero)
  | Occupation number:      0.00000000
  | K-point:       1 at    0.000000    0.000000    0.000000 (in units of recip. lattice)

  ESTIMATED overall HOMO-LUMO gap:      1.55853330 eV between HOMO at k-point 1 and LUMO at k-point 1
  The gap value is above 0.2 eV. Unless you are using a very sparse k-point grid,
  this system is most likely an insulator or a semiconductor.

  | Chemical Potential                          :    -5.23899741 eV
  | Note that, for insulating systems, the printed 'chemical potential' value is not uniquely defined.
  | It can be anywhere in the energy gap, as long as it correctly separates occupied and unoccupied states.
  | In systems with a gap, the physically relevant chemical potential is the VBM or HOMO.

  Self-consistency cycle converged.


------------------------------------------------------------
  End self-consistency iteration #    13       :  max(cpu_time)    wall_clock(cpu1)
  | Time for this iteration                     :        7.880 s           7.914 s
  | Charge density update                       :        0.000 s           0.000 s
  | Density mixing                              :        1.106 s           1.109 s
  | Hartree multipole update                    :        0.027 s           0.027 s
  | Hartree multipole summation                 :        3.695 s           3.705 s
  | Integration                                 :        2.970 s           2.977 s
  | Solution of K.-S. eqns.                     :        0.079 s           0.080 s
  | Total energy evaluation                     :        0.000 s           0.001 s

  Partial memory accounting:
  | Current value for overall tracked memory usage:
  |   Minimum:      122.107 MB (on task 0)
  |   Maximum:      122.107 MB (on task 0)
  |   Average:      122.107 MB
  | Peak value for overall tracked memory usage:
  |   Minimum:      135.033 MB (on task 0 after allocating eval_tmp)
  |   Maximum:      135.033 MB (on task 0 after allocating eval_tmp)
  |   Average:      135.033 MB
  | Largest tracked array allocation so far:
  |   Minimum:       39.318 MB (previous_rho_gradient_diff on task 0)
  |   Maximum:       39.318 MB (previous_rho_gradient_diff on task 0)
  |   Average:       39.318 MB
  Note:  These values currently only include a subset of arrays which are explicitly tracked.
  The "true" memory usage will be greater.
------------------------------------------------------------

  Energy and forces in a compact form:
  | Total energy uncorrected      :         -0.373037255101906E+05 eV
  | Total energy corrected        :         -0.373037255101906E+05 eV  <-- do not rely on this value for anything but (periodic) metals
  | Electronic free energy        :         -0.373037255101906E+05 eV

  ------------------------------------ 
  Start decomposition of the XC Energy 
  ------------------------------------ 
  X and C from original XC functional choice 
  Hartree-Fock Energy :          0.000000000 Ha              0.000000000 eV
  X Energy            :       -176.665781033 Ha          -4807.320495685 eV
  C Energy            :         -6.808665117 Ha           -185.273204430 eV
  XC Energy w/o HF    :       -183.474446150 Ha          -4992.593700115 eV
  Total XC Energy     :       -183.474446150 Ha          -4992.593700115 eV
  ------------------------------------ 
  LDA X and C from self-consistent density 
  X Energy LDA        :       -160.272637786 Ha          -4361.240371632 eV
  C Energy LDA        :        -13.286778194 Ha           -361.551630201 eV
  ------------------------------------ 
  End decomposition of the XC Energy 
  ------------------------------------ 

------------------------------------------------------------

  ------------------------------------------------------------
                      Starting Cube Output
  ------------------------------------------------------------

  The following cube files will be created:

  --------------------------------------
    Cube file:            1
    cube origin      15.0000     15.0000     15.0000
    cube edge 300      0.1000      0.0000      0.0000
    cube edge 300      0.0000      0.1000      0.0000
    cube edge 300      0.0000      0.0000      0.1000
    cube filename: cube_001_hartree_potential.cube
  --------------------------------------

  * WARNING: The output  of  the cube file is in 1/Ang^3  or
  * WARNING: 1/Ang^3/2,  but  the cube voxel  definition  is
  * WARNING: in atomic units. Be careful when postprocessing
  * WARNING: Consistent units can be chosen in control.in by
  *               cube_content_unit  bohr

 
   Starting cube            1
   Cube will be divided in
     30 minicubes along the first,
     30 minicubes along the second, and
     30 minicubes along the third cube edge
  Partitioning the integration grid into batches with parallel hashing+maxmin method.
  | Number of batches:   209775
  | Maximal batch size:     200
  | Minimal batch size:      42
  | Average batch size:     128.709
  | Standard deviation of batch sizes:      33.879

  Integration load balanced across     1 MPI tasks.
  Work distribution over tasks is as follows:
  | Original multipole sum: apparent total charge =  -0.434993E-11
  | Sum of charges compensated after spline to logarithmic grids =   0.853399E-03
  Initializing partition tables, free-atom densities, potentials, etc. across the integration grid (initialize_grid_storage).
  | Original list of interatomic distances with         152 x        152 entries is created.
  | Net number of integration points: 27000000
  | of which are non-zero points    : 27000000
   Cube file 1 finished.

  Cube output                                             :  max(cpu_time)    wall_clock(cpu1)
  | Total time for cube output                            :       2648.256            2656.609
------------------------------------------------------------

  -------------------------------------------------------------------
  Writing the requested band structure output (LAPACK version):
  -------------------------------------------------------------------


  Integrating Hamiltonian matrix: batch-based integration.
  Time summed over all CPUs for integration: real work        3.025 s, elapsed        3.025 s

  Treating all    2 k-points in band plot segment #   1:

  Overlap matrix is not singular
  | Lowest and highest eigenvalues :  0.7515E-03,  0.7130E+01
  Finished singularity check of overlap matrix
  | Time :     0.042 s
  Starting LAPACK eigensolver
  Finished Cholesky decomposition
  | Time :     0.007 s
  Finished transformation to standard eigenproblem
  | Time :     0.016 s
  Finished solving standard eigenproblem
  | Time :     0.050 s
  Finished back-transformation of eigenvectors
  | Time :     0.003 s
  "Band gap" along reciprocal space direction number:    1
  | Lowest unoccupied state:      -4.76713511 eV
  | Highest occupied state :      -6.32566841 eV
  | Energy difference      :       1.55853330 eV

  Kohn-Sham eigenvectors for band number   1 will be written to files.
  | Writing complex Kohn-Sham eigenvectors in file:
  | KS_eigenvectors.band_1.kpt_1.out

  | Writing complex Kohn-Sham eigenvectors in file:
  | KS_eigenvectors.band_1.kpt_2.out

  "Band gap" of total set of bands:
  | Lowest unoccupied state:      -4.76713511 eV
  | Highest occupied state :      -6.32566841 eV
  | Energy difference      :       1.55853330 eV



  Band Structure                                          :  max(cpu_time) wall_clock(cpu1)
  | Total Time                                            :          3.423            3.478
------------------------------------------------------------

------------------------------------------------------------------------------
  Final output of selected total energy values:

  The following output summarizes some interesting total energy values
  at the end of a run (AFTER all relaxation, molecular dynamics, etc.).

  | Total energy of the DFT / Hartree-Fock s.c.f. calculation      :         -37303.725510191 eV
  | Final zero-broadening corrected energy (caution - metals only) :         -37303.725510191 eV
  | For reference only, the value of 1 Hartree used in FHI-aims is :             27.211384500 eV
  | For reference only, the overall average (free atom contribution
  | + realspace contribution) of the electrostatic potential after
  | s.c.f. convergence is                                          :             -0.133943804 eV

  Before relying on these values, please be sure to understand exactly which
  total energy value is referred to by a given number. Different objects may
  all carry the same name 'total energy'. Definitions:

  Total energy of the DFT / Hartree-Fock s.c.f. calculation:
  | Note that this energy does not include ANY quantities calculated after the
  | s.c.f. cycle, in particular not ANY RPA, MP2, etc. many-body perturbation terms.

  Final zero-broadening corrected energy:
  | For metallic systems only, a broadening of the occupation numbers at the Fermi
  | level can be extrapolated back to zero broadening by an electron-gas inspired
  | formula. For all systems that are not real metals, this value can be
  | meaningless and should be avoided.

------------------------------------------------------------------------------
  Methods described in the following list of references were used in this FHI-aims run.
  If you publish the results, please make sure to cite these reference if they apply.
  FHI-aims is an academic code, and for our developers (often, Ph.D. students
  and postdocs), scientific credit in the community is essential.
  Thank you for helping us!

  For any use of FHI-aims, please cite:

    Volker Blum, Ralf Gehrke, Felix Hanke, Paula Havu, Ville Havu,
    Xinguo Ren, Karsten Reuter, and Matthias Scheffler
    'Ab initio molecular simulations with numeric atom-centered orbitals'
    Computer Physics Communications 180, 2175-2196 (2009)
    http://doi.org/10.1016/j.cpc.2009.06.022


  The provided symmetry information was generated with SPGlib:

    Atsushi Togo, Yusuke Seto, Dimitar Pashov
    SPGlib 1.7.3 obtained from http://spglib.sourceforge.net
    Copyright (C) 2008 Atsushi Togo


  The ELSI infrastructure was used in your run to solve the Kohn-Sham electronic structure.
  Please check out http://elsi-interchange.org to learn more.
  If scalability is important for your project, please acknowledge ELSI by citing:

    V. W-z. Yu, F. Corsetti, A. Garcia, W. P. Huhn, M. Jacquelin, W. Jia,
    B. Lange, L. Lin, J. Lu, W. Mi, A. Seifitokaldani, A. Vazquez-Mayagoitia,
    C. Yang, H. Yang, and V. Blum
    'ELSI: A unified software interface for Kohn-Sham electronic structure solvers'
    Computer Physics Communications 222, 267-285 (2018).
    http://doi.org/10.1016/j.cpc.2017.09.007


  For the real-space grid partitioning and parallelization used in this calculation, please cite:

    Ville Havu, Volker Blum, Paula Havu, and Matthias Scheffler,
    'Efficient O(N) integration for all-electron electronic structure calculation'
    'using numerically tabulated basis functions'
    Journal of Computational Physics 228, 8367-8379 (2009).
    http://doi.org/10.1016/j.jcp.2009.08.008

  Of course, there are many other important community references, e.g., those cited in the
  above references. Our list is limited to references that describe implementations in the
  FHI-aims code. The reason is purely practical (length of this list) - please credit others as well.

 * A warning was issued further up regarding the accuracy of onsite integrals.
   An integral with a negative eigenvalue was among the flagged integrals.
   In most standard situations, this warning is probably harmless.
   If needed, this can be verified by adjusting the radial_multiplier flag.

 * A warning regarding the cube file format (cube_content_unit legacy)
 * was issued above. The output is Angstrom-based but the cube voxel
 * definition is in atomic units. Please check carefully.

------------------------------------------------------------
          Leaving FHI-aims.
          Date     :  20240103, Time     :  234600.695

          Computational steps:
          | Number of self-consistency cycles          :           13
          | Number of SCF (re)initializations          :            1

          Detailed time accounting                     :  max(cpu_time)    wall_clock(cpu1)
          | Total time                                  :     2815.140 s        2824.534 s
          | Preparation time                            :        0.354 s           0.409 s
          | Boundary condition initalization            :        0.171 s           0.199 s
          | Grid partitioning                           :        0.979 s           0.984 s
          | Preloading free-atom quantities on grid     :        2.393 s           2.415 s
          | Free-atom superposition energy              :        0.537 s           0.538 s
          | Total time for integrations                 :       43.641 s          43.754 s
          | Total time for solution of K.-S. equations  :        1.097 s           1.125 s
          | Total time for density update               :       48.984 s          49.111 s
          | Total time for mixing & preconditioning     :       16.566 s          16.614 s
          | Total time for Hartree multipole update     :        0.350 s           0.354 s
          | Total time for Hartree multipole sum        :       48.130 s          48.257 s
          | Total time for total energy evaluation      :        0.003 s           0.019 s
          | Total time for scaled ZORA corrections      :        0.000 s           0.000 s
          | Total time for band structures, DOS         :        3.423 s           3.478 s
          | Total time for cube output                  :     2648.256 s        2656.609 s

          Partial memory accounting:
          | Residual value for overall tracked memory usage across tasks:     0.000000 MB (should be 0.000000 MB)
          | Peak values for overall tracked memory usage:
          |   Minimum:      137.939 MB (on task 0 after allocating eval_tmp)
          |   Maximum:      137.939 MB (on task 0 after allocating eval_tmp)
          |   Average:      137.939 MB
          | Largest tracked array allocation:
          |   Minimum:       39.318 MB (previous_rho_gradient_diff on task 0)
          |   Maximum:       39.318 MB (previous_rho_gradient_diff on task 0)
          |   Average:       39.318 MB
          Note:  These values currently only include a subset of arrays which are explicitly tracked.
          The "true" memory usage will be greater.

          Have a nice day.
------------------------------------------------------------
